# vtk DataFile Version 2.0
Simplicial Mesh Example
ASCII
DATASET UNSTRUCTURED_GRID
POINTS 35 double
0 3000 4.54747e-13
0 2000 4.54747e-13
0 3000 -1000
0 2000 -1000
0 1000 4.54747e-13
0 1000 -1000
0 0 4.54747e-13
0 1.13687e-13 -1000
0 -1000 4.54747e-13
0 -1000 -1000
0 -2000 4.54747e-13
0 -2000 -1000
0 -3000 4.54747e-13
0 -3000 -1000
0 3000 -2000
0 2000 -2000
0 1000 -2000
0 2.27374e-13 -2000
0 -1000 -2000
0 -2000 -2000
0 -3000 -2000
0 3000 -3000
0 2000 -3000
0 3000 -4000
0 2000 -4000
0 1000 -3000
0 1000 -4000
0 -1.13687e-13 -3000
0 0 -4000
0 -1000 -3000
0 -1000 -4000
0 -2000 -3000
0 -2000 -4000
0 -3000 -3000
0 -3000 -4000
CELLS 24 120
4  2 3 1 0
4  3 5 4 1
4  14 15 3 2
4  15 16 5 3
4  5 7 6 4
4  16 17 7 5
4  7 9 8 6
4  17 18 9 7
4  9 11 10 8
4  18 19 11 9
4  11 13 12 10
4  19 20 13 11
4  21 22 15 14
4  22 25 16 15
4  25 27 17 16
4  27 29 18 17
4  29 31 19 18
4  31 33 20 19
4  23 24 22 21
4  24 26 25 22
4  26 28 27 25
4  28 30 29 27
4  30 32 31 29
4  32 34 33 31
CELL_TYPES 24
9
9
9
9
9
9
9
9
9
9
9
9
9
9
9
9
9
9
9
9
9
9
9
9
POINT_DATA 35
VECTORS normal_dir double
-1 0 0
-1 0 0
-1 0 0
-1 0 0
-1 0 0
-1 0 0
-1 0 0
-1 0 0
-1 0 0
-1 0 0
-1 0 0
-1 0 0
-1 0 0
-1 0 0
-1 0 0
-1 0 0
-1 0 0
-1 0 0
-1 0 0
-1 0 0
-1 0 0
-1 0 0
-1 0 0
-1 0 0
-1 0 0
-1 0 0
-1 0 0
-1 0 0
-1 0 0
-1 0 0
-1 0 0
-1 0 0
-1 0 0
-1 0 0
-1 0 0
VECTORS final_slip double
-2 0.25 0
-2 0.25 0
-2 0.25 0
-2 0 0
-2 0.25 0
-2 0 0
-2 0.25 0
-2 0 0
-2 0.25 0
-2 0.25 0
-2 0.25 0
-2 0 0
-2 0.25 0
-2 0.25 0
-2 0 0
-2 0 0
-2 0 0
-2 0 0
-2 0 0
-2 0 0
-2 0 0
-2 0 0
-2 0 0
0 0 0
0 0 0
-2 0 0
0 0 0
-2 0 0
0 0 0
-2 0 0
0 0 0
-2 0 0
0 0 0
-2 0 0
0 0 0
SCALARS slip_time double 1
LOOKUP_TABLE default
-1
-1
-1
-1
-1
-1
-1
-1
-1
-1
-1
-1
-1
-1
-1
-1
-1
-1
-1
-1
-1
-1
-1
-1
-1
-1
-1
-1
-1
-1
-1
-1
-1
-1
-1
