# vtk DataFile Version 2.0
Simplicial Mesh Example
ASCII
DATASET UNSTRUCTURED_GRID
POINTS 35 double
0 3000 4.54747e-13
0 2000 4.54747e-13
0 3000 -1000
0 2000 -1000
0 1000 4.54747e-13
0 1000 -1000
0 0 4.54747e-13
0 1.13687e-13 -1000
0 -1000 4.54747e-13
0 -1000 -1000
0 -2000 4.54747e-13
0 -2000 -1000
0 -3000 4.54747e-13
0 -3000 -1000
0 3000 -2000
0 2000 -2000
0 1000 -2000
0 2.27374e-13 -2000
0 -1000 -2000
0 -2000 -2000
0 -3000 -2000
0 3000 -3000
0 2000 -3000
0 3000 -4000
0 2000 -4000
0 1000 -3000
0 1000 -4000
0 -1.13687e-13 -3000
0 0 -4000
0 -1000 -3000
0 -1000 -4000
0 -2000 -3000
0 -2000 -4000
0 -3000 -3000
0 -3000 -4000
CELLS 24 120
4  2 3 1 0
4  3 5 4 1
4  14 15 3 2
4  15 16 5 3
4  5 7 6 4
4  16 17 7 5
4  7 9 8 6
4  17 18 9 7
4  9 11 10 8
4  18 19 11 9
4  11 13 12 10
4  19 20 13 11
4  21 22 15 14
4  22 25 16 15
4  25 27 17 16
4  27 29 18 17
4  29 31 19 18
4  31 33 20 19
4  23 24 22 21
4  24 26 25 22
4  26 28 27 25
4  28 30 29 27
4  30 32 31 29
4  32 34 33 31
CELL_TYPES 24
9
9
9
9
9
9
9
9
9
9
9
9
9
9
9
9
9
9
9
9
9
9
9
9
POINT_DATA 35
VECTORS slip double
-2 0.25 0
-2 0.25 0
-2 0.25 0
-2 0 0
-2 0.25 0
-2 0 0
-2 0.25 0
-2 0 0
-2 0.25 0
-2 0.25 0
-2 0.25 0
-2 0 0
-2 0.25 0
-2 0.25 0
-2 0 0
-2 0 0
-2 0 0
-2 0 0
-2 0 0
-2 0 0
-2 0 0
-2 0 0
-2 0 0
0 0 0
0 0 0
-2 0 0
0 0 0
-2 0 0
0 0 0
-2 0 0
0 0 0
-2 0 0
0 0 0
-2 0 0
0 0 0
VECTORS traction_change double
744030 -3.79422e+06 -0.0322674
3.6125e+06 -5.05958e+06 -0.120183
1.26768e+06 -2.9403e+06 -0.0148497
4.38004e+06 2.07491e+06 -0.0751128
6.93162e+06 -6.0332e+06 -0.00164874
6.94005e+06 2.57531e+06 -0.00654294
8.49863e+06 -4.69201e+06 0.0147848
7.7361e+06 2.21081e+06 0.00457257
6.96374e+06 -3.07675e+06 0.0644664
6.95689e+06 -2.79701e+06 0.0584945
4.47322e+06 -3.05596e+06 -0.0556364
4.44922e+06 1.98169e+06 -0.0257096
3.50676e+06 -2.72459e+06 -0.192562
2.84531e+06 -2.92247e+06 -0.101699
3.02191e+06 1.35204e+06 -0.308551
6.05781e+06 345036 -0.105514
8.291e+06 -58554.4 0.0164953
8.66063e+06 742406 0.0904754
8.31528e+06 1.66649e+06 0.0648212
5.74976e+06 1.76622e+06 0.0869304
3.18247e+06 1.48656e+06 0.066622
1.0137e+07 5.40864e+06 0.225688
1.19284e+07 -563432 0.273515
-1.8862e+07 1.29556e+07 0.423319
-1.93244e+07 -113834 0.392288
1.3758e+07 -113740 0.328265
-1.88329e+07 187100 0.235918
1.42977e+07 78356.8 0.333012
-1.8339e+07 72847.5 0.0500928
1.37768e+07 263241 0.286411
-1.88186e+07 -30524.4 -0.124893
1.19721e+07 734600 0.240401
-1.93009e+07 272630 -0.227138
1.0157e+07 -5.26069e+06 0.280287
-1.88624e+07 -1.27736e+07 -0.188174
