# vtk DataFile Version 2.0
Simplicial Mesh Example
ASCII
DATASET UNSTRUCTURED_GRID
POINTS 280 double
0 3000 4.54747e-13
1000 3000 0
1000 2000 0
0 2000 4.54747e-13
0 3000 -1000
1000 3000 -1000
1000 2000 -1000
0 2000 -1000
2000 3000 0
2000 2000 0
2000 3000 -1000
2000 2000 -1000
3000 3000 0
3000 2000 0
3000 3000 -1000
3000 2000 -1000
1000 1000 0
0 1000 4.54747e-13
1000 1000 -1000
0 1000 -1000
2000 1000 0
2000 1000 -1000
3000 1000 0
3000 1000 -1000
1000 0 0
0 0 4.54747e-13
1000 9.4739e-14 -1000
0 1.13687e-13 -1000
2000 1.13687e-13 0
2000 4.73695e-14 -1000
3000 0 0
3000 0 -1000
1000 -1000 0
0 -1000 4.54747e-13
1000 -1000 -1000
0 -1000 -1000
2000 -1000 0
2000 -1000 -1000
3000 -1000 0
3000 -1000 -1000
1000 -2000 0
0 -2000 4.54747e-13
1000 -2000 -1000
0 -2000 -1000
2000 -2000 0
2000 -2000 -1000
3000 -2000 0
3000 -2000 -1000
1000 -3000 0
0 -3000 4.54747e-13
1000 -3000 -1000
0 -3000 -1000
2000 -3000 0
2000 -3000 -1000
3000 -3000 0
3000 -3000 -1000
0 3000 -2000
1000 3000 -2000
1000 2000 -2000
0 2000 -2000
2000 3000 -2000
2000 2000 -2000
3000 3000 -2000
3000 2000 -2000
1000 1000 -2000
0 1000 -2000
2000 1000 -2000
3000 1000 -2000
1000 2.27374e-13 -2000
0 2.27374e-13 -2000
2000 0 -2000
3000 0 -2000
1000 -1000 -2000
0 -1000 -2000
2000 -1000 -2000
3000 -1000 -2000
1000 -2000 -2000
0 -2000 -2000
2000 -2000 -2000
3000 -2000 -2000
1000 -3000 -2000
0 -3000 -2000
2000 -3000 -2000
3000 -3000 -2000
-3000 3000 -2000
-3000 3000 -1000
-3000 2000 -1000
-3000 2000 -2000
-2000 3000 -2000
-2000 3000 -1000
-2000 2000 -1000
-2000 2000 -2000
-3000 3000 0
-3000 2000 0
-2000 3000 0
-2000 2000 0
-3000 1000 -1000
-3000 1000 -2000
-2000 1000 -1000
-2000 1000 -2000
-3000 1000 0
-2000 1000 0
-3000 0 -1000
-3000 0 -2000
-2000 -9.4739e-15 -1000
-2000 0 -2000
-3000 0 0
-2000 -1.13687e-13 0
-3000 -1000 -1000
-3000 -1000 -2000
-2000 -1000 -1000
-2000 -1000 -2000
-3000 -1000 0
-2000 -1000 0
-3000 -2000 -1000
-3000 -2000 -2000
-2000 -2000 -1000
-2000 -2000 -2000
-3000 -2000 0
-2000 -2000 0
-3000 -3000 -1000
-3000 -3000 -2000
-2000 -3000 -1000
-2000 -3000 -2000
-3000 -3000 0
-2000 -3000 0
-1000 3000 -2000
-1000 3000 -1000
-1000 2000 -1000
-1000 2000 -2000
-1000 3000 0
-1000 2000 0
-1000 1000 -1000
-1000 1000 -2000
-1000 1000 0
-1000 9.4739e-14 -1000
-1000 2.27374e-13 -2000
-1000 0 0
-1000 -1000 -1000
-1000 -1000 -2000
-1000 -1000 0
-1000 -2000 -1000
-1000 -2000 -2000
-1000 -2000 0
-1000 -3000 -1000
-1000 -3000 -2000
-1000 -3000 0
3000 3000 -3000
3000 2000 -3000
2000 3000 -3000
2000 2000 -3000
3000 3000 -4000
3000 2000 -4000
2000 3000 -4000
2000 2000 -4000
3000 1000 -3000
2000 1000 -3000
3000 1000 -4000
2000 1000 -4000
3000 0 -3000
2000 -4.73695e-14 -3000
3000 0 -4000
2000 -1.13687e-13 -4000
3000 -1000 -3000
2000 -1000 -3000
3000 -1000 -4000
2000 -1000 -4000
3000 -2000 -3000
2000 -2000 -3000
3000 -2000 -4000
2000 -2000 -4000
3000 -3000 -3000
2000 -3000 -3000
3000 -3000 -4000
2000 -3000 -4000
1000 3000 -3000
1000 2000 -3000
1000 3000 -4000
1000 2000 -4000
1000 1000 -3000
1000 1000 -4000
1000 1.89478e-14 -3000
1000 0 -4000
1000 -1000 -3000
1000 -1000 -4000
1000 -2000 -3000
1000 -2000 -4000
1000 -3000 -3000
1000 -3000 -4000
0 3000 -3000
0 2000 -3000
0 3000 -4000
0 2000 -4000
0 1000 -3000
0 1000 -4000
0 -1.13687e-13 -3000
0 0 -4000
0 -1000 -3000
0 -1000 -4000
0 -2000 -3000
0 -2000 -4000
0 -3000 -3000
0 -3000 -4000
-1000 3000 -4000
-1000 2000 -4000
-1000 3000 -3000
-1000 2000 -3000
-2000 3000 -4000
-2000 2000 -4000
-2000 3000 -3000
-2000 2000 -3000
-3000 3000 -4000
-3000 2000 -4000
-3000 3000 -3000
-3000 2000 -3000
-1000 1000 -4000
-1000 1000 -3000
-2000 1000 -4000
-2000 1000 -3000
-3000 1000 -4000
-3000 1000 -3000
-1000 0 -4000
-1000 1.89478e-14 -3000
-2000 1.13687e-13 -4000
-2000 9.4739e-15 -3000
-3000 0 -4000
-3000 0 -3000
-1000 -1000 -4000
-1000 -1000 -3000
-2000 -1000 -4000
-2000 -1000 -3000
-3000 -1000 -4000
-3000 -1000 -3000
-1000 -2000 -4000
-1000 -2000 -3000
-2000 -2000 -4000
-2000 -2000 -3000
-3000 -2000 -4000
-3000 -2000 -3000
-1000 -3000 -4000
-1000 -3000 -3000
-2000 -3000 -4000
-2000 -3000 -3000
-3000 -3000 -4000
-3000 -3000 -3000
0 3000 4.54747e-13
0 2000 4.54747e-13
0 3000 -1000
0 2000 -1000
0 1000 4.54747e-13
0 1000 -1000
0 0 4.54747e-13
0 1.13687e-13 -1000
0 -1000 4.54747e-13
0 -1000 -1000
0 -2000 4.54747e-13
0 -2000 -1000
0 -3000 4.54747e-13
0 -3000 -1000
0 3000 -2000
0 2000 -2000
0 1000 -2000
0 2.27374e-13 -2000
0 -1000 -2000
0 -2000 -2000
0 -3000 -2000
0 3000 -3000
0 2000 -3000
0 3000 -4000
0 2000 -4000
0 1000 -3000
0 1000 -4000
0 -1.13687e-13 -3000
0 0 -4000
0 -1000 -3000
0 -1000 -4000
0 -2000 -3000
0 -2000 -4000
0 -3000 -3000
0 -3000 -4000
CELLS 72 648
8  0 1 2 3 4 5 6 7
8  1 8 9 2 5 10 11 6
8  8 12 13 9 10 14 15 11
8  3 2 16 17 7 6 18 19
8  2 9 20 16 6 11 21 18
8  9 13 22 20 11 15 23 21
8  17 16 24 25 19 18 26 27
8  16 20 28 24 18 21 29 26
8  20 22 30 28 21 23 31 29
8  25 24 32 33 27 26 34 35
8  24 28 36 32 26 29 37 34
8  28 30 38 36 29 31 39 37
8  33 32 40 41 35 34 42 43
8  32 36 44 40 34 37 45 42
8  36 38 46 44 37 39 47 45
8  41 40 48 49 43 42 50 51
8  40 44 52 48 42 45 53 50
8  44 46 54 52 45 47 55 53
8  4 5 6 7 56 57 58 59
8  5 10 11 6 57 60 61 58
8  10 14 15 11 60 62 63 61
8  7 6 18 19 59 58 64 65
8  6 11 21 18 58 61 66 64
8  11 15 23 21 61 63 67 66
8  19 18 26 27 65 64 68 69
8  18 21 29 26 64 66 70 68
8  21 23 31 29 66 67 71 70
8  27 26 34 35 69 68 72 73
8  26 29 37 34 68 70 74 72
8  29 31 39 37 70 71 75 74
8  35 34 42 43 73 72 76 77
8  34 37 45 42 72 74 78 76
8  37 39 47 45 74 75 79 78
8  43 42 50 51 77 76 80 81
8  42 45 53 50 76 78 82 80
8  45 47 55 53 78 79 83 82
8  84 85 86 87 88 89 90 91
8  85 92 93 86 89 94 95 90
8  87 86 96 97 91 90 98 99
8  86 93 100 96 90 95 101 98
8  97 96 102 103 99 98 104 105
8  96 100 106 102 98 101 107 104
8  103 102 108 109 105 104 110 111
8  102 106 112 108 104 107 113 110
8  109 108 114 115 111 110 116 117
8  108 112 118 114 110 113 119 116
8  115 114 120 121 117 116 122 123
8  114 118 124 120 116 119 125 122
8  88 89 90 91 126 127 128 129
8  89 94 95 90 127 130 131 128
8  91 90 98 99 129 128 132 133
8  90 95 101 98 128 131 134 132
8  99 98 104 105 133 132 135 136
8  98 101 107 104 132 134 137 135
8  105 104 110 111 136 135 138 139
8  104 107 113 110 135 137 140 138
8  111 110 116 117 139 138 141 142
8  110 113 119 116 138 140 143 141
8  117 116 122 123 142 141 144 145
8  116 119 125 122 141 143 146 144
8  126 127 128 129 259 247 248 260
8  127 130 131 128 247 245 246 248
8  129 128 132 133 260 248 250 261
8  128 131 134 132 248 246 249 250
8  133 132 135 136 261 250 252 262
8  132 134 137 135 250 249 251 252
8  136 135 138 139 262 252 254 263
8  135 137 140 138 252 251 253 254
8  139 138 141 142 263 254 256 264
8  138 140 143 141 254 253 255 256
8  142 141 144 145 264 256 258 265
8  141 143 146 144 256 255 257 258
CELL_TYPES 72
12
12
12
12
12
12
12
12
12
12
12
12
12
12
12
12
12
12
12
12
12
12
12
12
12
12
12
12
12
12
12
12
12
12
12
12
12
12
12
12
12
12
12
12
12
12
12
12
12
12
12
12
12
12
12
12
12
12
12
12
12
12
12
12
12
12
12
12
12
12
12
12
CELL_DATA 72
SCALARS mu double 1
LOOKUP_TABLE default
2.25e+10
2.25e+10
2.25e+10
2.25e+10
2.25e+10
2.25e+10
2.25e+10
2.25e+10
2.25e+10
2.25e+10
2.25e+10
2.25e+10
2.25e+10
2.25e+10
2.25e+10
2.25e+10
2.25e+10
2.25e+10
2.25e+10
2.25e+10
2.25e+10
2.25e+10
2.25e+10
2.25e+10
2.25e+10
2.25e+10
2.25e+10
2.25e+10
2.25e+10
2.25e+10
2.25e+10
2.25e+10
2.25e+10
2.25e+10
2.25e+10
2.25e+10
2.25e+10
2.25e+10
2.25e+10
2.25e+10
2.25e+10
2.25e+10
2.25e+10
2.25e+10
2.25e+10
2.25e+10
2.25e+10
2.25e+10
2.25e+10
2.25e+10
2.25e+10
2.25e+10
2.25e+10
2.25e+10
2.25e+10
2.25e+10
2.25e+10
2.25e+10
2.25e+10
2.25e+10
2.25e+10
2.25e+10
2.25e+10
2.25e+10
2.25e+10
2.25e+10
2.25e+10
2.25e+10
2.25e+10
2.25e+10
2.25e+10
2.25e+10
SCALARS lambda double 1
LOOKUP_TABLE default
2.5e+10
2.5e+10
2.5e+10
2.5e+10
2.5e+10
2.5e+10
2.5e+10
2.5e+10
2.5e+10
2.5e+10
2.5e+10
2.5e+10
2.5e+10
2.5e+10
2.5e+10
2.5e+10
2.5e+10
2.5e+10
2.5e+10
2.5e+10
2.5e+10
2.5e+10
2.5e+10
2.5e+10
2.5e+10
2.5e+10
2.5e+10
2.5e+10
2.5e+10
2.5e+10
2.5e+10
2.5e+10
2.5e+10
2.5e+10
2.5e+10
2.5e+10
2.5e+10
2.5e+10
2.5e+10
2.5e+10
2.5e+10
2.5e+10
2.5e+10
2.5e+10
2.5e+10
2.5e+10
2.5e+10
2.5e+10
2.5e+10
2.5e+10
2.5e+10
2.5e+10
2.5e+10
2.5e+10
2.5e+10
2.5e+10
2.5e+10
2.5e+10
2.5e+10
2.5e+10
2.5e+10
2.5e+10
2.5e+10
2.5e+10
2.5e+10
2.5e+10
2.5e+10
2.5e+10
2.5e+10
2.5e+10
2.5e+10
2.5e+10
SCALARS density double 1
LOOKUP_TABLE default
2500
2500
2500
2500
2500
2500
2500
2500
2500
2500
2500
2500
2500
2500
2500
2500
2500
2500
2500
2500
2500
2500
2500
2500
2500
2500
2500
2500
2500
2500
2500
2500
2500
2500
2500
2500
2500
2500
2500
2500
2500
2500
2500
2500
2500
2500
2500
2500
2500
2500
2500
2500
2500
2500
2500
2500
2500
2500
2500
2500
2500
2500
2500
2500
2500
2500
2500
2500
2500
2500
2500
2500
