# vtk DataFile Version 2.0
Simplicial Mesh Example
ASCII
DATASET UNSTRUCTURED_GRID
POINTS 280 double
0 3000 4.54747e-13
1000 3000 0
1000 2000 0
0 2000 4.54747e-13
0 3000 -1000
1000 3000 -1000
1000 2000 -1000
0 2000 -1000
2000 3000 0
2000 2000 0
2000 3000 -1000
2000 2000 -1000
3000 3000 0
3000 2000 0
3000 3000 -1000
3000 2000 -1000
1000 1000 0
0 1000 4.54747e-13
1000 1000 -1000
0 1000 -1000
2000 1000 0
2000 1000 -1000
3000 1000 0
3000 1000 -1000
1000 0 0
0 0 4.54747e-13
1000 9.4739e-14 -1000
0 1.13687e-13 -1000
2000 1.13687e-13 0
2000 4.73695e-14 -1000
3000 0 0
3000 0 -1000
1000 -1000 0
0 -1000 4.54747e-13
1000 -1000 -1000
0 -1000 -1000
2000 -1000 0
2000 -1000 -1000
3000 -1000 0
3000 -1000 -1000
1000 -2000 0
0 -2000 4.54747e-13
1000 -2000 -1000
0 -2000 -1000
2000 -2000 0
2000 -2000 -1000
3000 -2000 0
3000 -2000 -1000
1000 -3000 0
0 -3000 4.54747e-13
1000 -3000 -1000
0 -3000 -1000
2000 -3000 0
2000 -3000 -1000
3000 -3000 0
3000 -3000 -1000
0 3000 -2000
1000 3000 -2000
1000 2000 -2000
0 2000 -2000
2000 3000 -2000
2000 2000 -2000
3000 3000 -2000
3000 2000 -2000
1000 1000 -2000
0 1000 -2000
2000 1000 -2000
3000 1000 -2000
1000 2.27374e-13 -2000
0 2.27374e-13 -2000
2000 0 -2000
3000 0 -2000
1000 -1000 -2000
0 -1000 -2000
2000 -1000 -2000
3000 -1000 -2000
1000 -2000 -2000
0 -2000 -2000
2000 -2000 -2000
3000 -2000 -2000
1000 -3000 -2000
0 -3000 -2000
2000 -3000 -2000
3000 -3000 -2000
-3000 3000 -2000
-3000 3000 -1000
-3000 2000 -1000
-3000 2000 -2000
-2000 3000 -2000
-2000 3000 -1000
-2000 2000 -1000
-2000 2000 -2000
-3000 3000 0
-3000 2000 0
-2000 3000 0
-2000 2000 0
-3000 1000 -1000
-3000 1000 -2000
-2000 1000 -1000
-2000 1000 -2000
-3000 1000 0
-2000 1000 0
-3000 0 -1000
-3000 0 -2000
-2000 -9.4739e-15 -1000
-2000 0 -2000
-3000 0 0
-2000 -1.13687e-13 0
-3000 -1000 -1000
-3000 -1000 -2000
-2000 -1000 -1000
-2000 -1000 -2000
-3000 -1000 0
-2000 -1000 0
-3000 -2000 -1000
-3000 -2000 -2000
-2000 -2000 -1000
-2000 -2000 -2000
-3000 -2000 0
-2000 -2000 0
-3000 -3000 -1000
-3000 -3000 -2000
-2000 -3000 -1000
-2000 -3000 -2000
-3000 -3000 0
-2000 -3000 0
-1000 3000 -2000
-1000 3000 -1000
-1000 2000 -1000
-1000 2000 -2000
-1000 3000 0
-1000 2000 0
-1000 1000 -1000
-1000 1000 -2000
-1000 1000 0
-1000 9.4739e-14 -1000
-1000 2.27374e-13 -2000
-1000 0 0
-1000 -1000 -1000
-1000 -1000 -2000
-1000 -1000 0
-1000 -2000 -1000
-1000 -2000 -2000
-1000 -2000 0
-1000 -3000 -1000
-1000 -3000 -2000
-1000 -3000 0
3000 3000 -3000
3000 2000 -3000
2000 3000 -3000
2000 2000 -3000
3000 3000 -4000
3000 2000 -4000
2000 3000 -4000
2000 2000 -4000
3000 1000 -3000
2000 1000 -3000
3000 1000 -4000
2000 1000 -4000
3000 0 -3000
2000 -4.73695e-14 -3000
3000 0 -4000
2000 -1.13687e-13 -4000
3000 -1000 -3000
2000 -1000 -3000
3000 -1000 -4000
2000 -1000 -4000
3000 -2000 -3000
2000 -2000 -3000
3000 -2000 -4000
2000 -2000 -4000
3000 -3000 -3000
2000 -3000 -3000
3000 -3000 -4000
2000 -3000 -4000
1000 3000 -3000
1000 2000 -3000
1000 3000 -4000
1000 2000 -4000
1000 1000 -3000
1000 1000 -4000
1000 1.89478e-14 -3000
1000 0 -4000
1000 -1000 -3000
1000 -1000 -4000
1000 -2000 -3000
1000 -2000 -4000
1000 -3000 -3000
1000 -3000 -4000
0 3000 -3000
0 2000 -3000
0 3000 -4000
0 2000 -4000
0 1000 -3000
0 1000 -4000
0 -1.13687e-13 -3000
0 0 -4000
0 -1000 -3000
0 -1000 -4000
0 -2000 -3000
0 -2000 -4000
0 -3000 -3000
0 -3000 -4000
-1000 3000 -4000
-1000 2000 -4000
-1000 3000 -3000
-1000 2000 -3000
-2000 3000 -4000
-2000 2000 -4000
-2000 3000 -3000
-2000 2000 -3000
-3000 3000 -4000
-3000 2000 -4000
-3000 3000 -3000
-3000 2000 -3000
-1000 1000 -4000
-1000 1000 -3000
-2000 1000 -4000
-2000 1000 -3000
-3000 1000 -4000
-3000 1000 -3000
-1000 0 -4000
-1000 1.89478e-14 -3000
-2000 1.13687e-13 -4000
-2000 9.4739e-15 -3000
-3000 0 -4000
-3000 0 -3000
-1000 -1000 -4000
-1000 -1000 -3000
-2000 -1000 -4000
-2000 -1000 -3000
-3000 -1000 -4000
-3000 -1000 -3000
-1000 -2000 -4000
-1000 -2000 -3000
-2000 -2000 -4000
-2000 -2000 -3000
-3000 -2000 -4000
-3000 -2000 -3000
-1000 -3000 -4000
-1000 -3000 -3000
-2000 -3000 -4000
-2000 -3000 -3000
-3000 -3000 -4000
-3000 -3000 -3000
0 3000 4.54747e-13
0 2000 4.54747e-13
0 3000 -1000
0 2000 -1000
0 1000 4.54747e-13
0 1000 -1000
0 0 4.54747e-13
0 1.13687e-13 -1000
0 -1000 4.54747e-13
0 -1000 -1000
0 -2000 4.54747e-13
0 -2000 -1000
0 -3000 4.54747e-13
0 -3000 -1000
0 3000 -2000
0 2000 -2000
0 1000 -2000
0 2.27374e-13 -2000
0 -1000 -2000
0 -2000 -2000
0 -3000 -2000
0 3000 -3000
0 2000 -3000
0 3000 -4000
0 2000 -4000
0 1000 -3000
0 1000 -4000
0 -1.13687e-13 -3000
0 0 -4000
0 -1000 -3000
0 -1000 -4000
0 -2000 -3000
0 -2000 -4000
0 -3000 -3000
0 -3000 -4000
CELLS 144 1296
8  0 1 2 3 4 5 6 7
8  1 8 9 2 5 10 11 6
8  8 12 13 9 10 14 15 11
8  3 2 16 17 7 6 18 19
8  2 9 20 16 6 11 21 18
8  9 13 22 20 11 15 23 21
8  17 16 24 25 19 18 26 27
8  16 20 28 24 18 21 29 26
8  20 22 30 28 21 23 31 29
8  25 24 32 33 27 26 34 35
8  24 28 36 32 26 29 37 34
8  28 30 38 36 29 31 39 37
8  33 32 40 41 35 34 42 43
8  32 36 44 40 34 37 45 42
8  36 38 46 44 37 39 47 45
8  41 40 48 49 43 42 50 51
8  40 44 52 48 42 45 53 50
8  44 46 54 52 45 47 55 53
8  4 5 6 7 56 57 58 59
8  5 10 11 6 57 60 61 58
8  10 14 15 11 60 62 63 61
8  7 6 18 19 59 58 64 65
8  6 11 21 18 58 61 66 64
8  11 15 23 21 61 63 67 66
8  19 18 26 27 65 64 68 69
8  18 21 29 26 64 66 70 68
8  21 23 31 29 66 67 71 70
8  27 26 34 35 69 68 72 73
8  26 29 37 34 68 70 74 72
8  29 31 39 37 70 71 75 74
8  35 34 42 43 73 72 76 77
8  34 37 45 42 72 74 78 76
8  37 39 47 45 74 75 79 78
8  43 42 50 51 77 76 80 81
8  42 45 53 50 76 78 82 80
8  45 47 55 53 78 79 83 82
8  84 85 86 87 88 89 90 91
8  85 92 93 86 89 94 95 90
8  87 86 96 97 91 90 98 99
8  86 93 100 96 90 95 101 98
8  97 96 102 103 99 98 104 105
8  96 100 106 102 98 101 107 104
8  103 102 108 109 105 104 110 111
8  102 106 112 108 104 107 113 110
8  109 108 114 115 111 110 116 117
8  108 112 118 114 110 113 119 116
8  115 114 120 121 117 116 122 123
8  114 118 124 120 116 119 125 122
8  88 89 90 91 126 127 128 129
8  89 94 95 90 127 130 131 128
8  91 90 98 99 129 128 132 133
8  90 95 101 98 128 131 134 132
8  99 98 104 105 133 132 135 136
8  98 101 107 104 132 134 137 135
8  105 104 110 111 136 135 138 139
8  104 107 113 110 135 137 140 138
8  111 110 116 117 139 138 141 142
8  110 113 119 116 138 140 143 141
8  117 116 122 123 142 141 144 145
8  116 119 125 122 141 143 146 144
8  126 127 128 129 259 247 248 260
8  127 130 131 128 247 245 246 248
8  129 128 132 133 260 248 250 261
8  128 131 134 132 248 246 249 250
8  133 132 135 136 261 250 252 262
8  132 134 137 135 250 249 251 252
8  136 135 138 139 262 252 254 263
8  135 137 140 138 252 251 253 254
8  139 138 141 142 263 254 256 264
8  138 140 143 141 254 253 255 256
8  142 141 144 145 264 256 258 265
8  141 143 146 144 256 255 257 258
8  62 147 148 63 60 149 150 61
8  147 151 152 148 149 153 154 150
8  63 148 155 67 61 150 156 66
8  148 152 157 155 150 154 158 156
8  67 155 159 71 66 156 160 70
8  155 157 161 159 156 158 162 160
8  71 159 163 75 70 160 164 74
8  159 161 165 163 160 162 166 164
8  75 163 167 79 74 164 168 78
8  163 165 169 167 164 166 170 168
8  79 167 171 83 78 168 172 82
8  167 169 173 171 168 170 174 172
8  60 149 150 61 57 175 176 58
8  149 153 154 150 175 177 178 176
8  61 150 156 66 58 176 179 64
8  150 154 158 156 176 178 180 179
8  66 156 160 70 64 179 181 68
8  156 158 162 160 179 180 182 181
8  70 160 164 74 68 181 183 72
8  160 162 166 164 181 182 184 183
8  74 164 168 78 72 183 185 76
8  164 166 170 168 183 184 186 185
8  78 168 172 82 76 185 187 80
8  168 170 174 172 185 186 188 187
8  57 175 176 58 56 189 190 59
8  175 177 178 176 189 191 192 190
8  58 176 179 64 59 190 193 65
8  176 178 180 179 190 192 194 193
8  64 179 181 68 65 193 195 69
8  179 180 182 181 193 194 196 195
8  68 181 183 72 69 195 197 73
8  181 182 184 183 195 196 198 197
8  72 183 185 76 73 197 199 77
8  183 184 186 185 197 198 200 199
8  76 185 187 80 77 199 201 81
8  185 186 188 187 199 200 202 201
8  268 203 204 269 266 205 206 267
8  203 207 208 204 205 209 210 206
8  207 211 212 208 209 213 214 210
8  269 204 215 271 267 206 216 270
8  204 208 217 215 206 210 218 216
8  208 212 219 217 210 214 220 218
8  271 215 221 273 270 216 222 272
8  215 217 223 221 216 218 224 222
8  217 219 225 223 218 220 226 224
8  273 221 227 275 272 222 228 274
8  221 223 229 227 222 224 230 228
8  223 225 231 229 224 226 232 230
8  275 227 233 277 274 228 234 276
8  227 229 235 233 228 230 236 234
8  229 231 237 235 230 232 238 236
8  277 233 239 279 276 234 240 278
8  233 235 241 239 234 236 242 240
8  235 237 243 241 236 238 244 242
8  266 205 206 267 259 126 129 260
8  205 209 210 206 126 88 91 129
8  209 213 214 210 88 84 87 91
8  267 206 216 270 260 129 133 261
8  206 210 218 216 129 91 99 133
8  210 214 220 218 91 87 97 99
8  270 216 222 272 261 133 136 262
8  216 218 224 222 133 99 105 136
8  218 220 226 224 99 97 103 105
8  272 222 228 274 262 136 139 263
8  222 224 230 228 136 105 111 139
8  224 226 232 230 105 103 109 111
8  274 228 234 276 263 139 142 264
8  228 230 236 234 139 111 117 142
8  230 232 238 236 111 109 115 117
8  276 234 240 278 264 142 145 265
8  234 236 242 240 142 117 123 145
8  236 238 244 242 117 115 121 123
CELL_TYPES 144
12
12
12
12
12
12
12
12
12
12
12
12
12
12
12
12
12
12
12
12
12
12
12
12
12
12
12
12
12
12
12
12
12
12
12
12
12
12
12
12
12
12
12
12
12
12
12
12
12
12
12
12
12
12
12
12
12
12
12
12
12
12
12
12
12
12
12
12
12
12
12
12
12
12
12
12
12
12
12
12
12
12
12
12
12
12
12
12
12
12
12
12
12
12
12
12
12
12
12
12
12
12
12
12
12
12
12
12
12
12
12
12
12
12
12
12
12
12
12
12
12
12
12
12
12
12
12
12
12
12
12
12
12
12
12
12
12
12
12
12
12
12
12
12
POINT_DATA 280
VECTORS displacements double
-0.404571 -1 0.125
-0.377801 -0.631525 -0.0136594
-0.139619 -0.615115 -0.0181235
-0.138115 -1 0.125
-0.48514 -1 0.125
-0.443214 -0.633588 0.00158818
-0.182725 -0.614063 0.011697
-0.207547 -1 1.25354e-10
-0.25911 -0.278875 -0.0871146
-0.0750889 -0.248026 -0.0495877
-0.283888 -0.300157 -0.027308
-0.0946581 -0.260961 -0.0250062
0 0 -0.121017
0 0 -0.0694543
0 0 -0.0451606
0 0 -0.0351063
-0.0343421 -0.603726 -0.0116874
-0.0124526 -1 0.125
-0.0643788 -0.607474 0.00757762
-0.0709921 -1 1.35211e-08
-0.0213421 -0.252956 -0.022219
-0.0333499 -0.263923 -0.0131361
0 0 -0.0293831
0 0 -0.0177467
0.022042 -0.599138 0.00870094
0.0526614 -1 0.125
-0.00659264 -0.608379 0.0221078
-0.00189542 -1 2.32684e-08
0.0102422 -0.255609 0.00369506
6.47111e-05 -0.267185 0.000153705
0 0 -0.000479475
0 0 -0.000765412
0.091112 -0.600351 0.0373386
0.12117 -1 0.125
0.050595 -0.606615 0.0170263
0.068172 -1 0.125
0.0412147 -0.250671 0.02801
0.0338377 -0.262919 0.0170127
0 0 0.0296939
0 0 0.0153361
0.190506 -0.606676 0.0449788
0.246903 -1 0.125
0.171264 -0.611378 0.0409292
0.205768 -1 3.10287e-08
0.100235 -0.24579 0.0589186
0.0957261 -0.258918 0.0267006
0 0 0.0685032
0 0 0.033245
0.458975 -0.622925 0.0625166
0.527236 -1 0.125
0.43089 -0.624649 0.0180069
0.488924 -1 0.125
0.282073 -0.284204 0.0887962
0.283901 -0.298024 0.032485
0 0 0.120776
0 0 0.0410526
-0.495626 -1 -2.14842e-08
-0.436528 -0.610685 0.059125
-0.165967 -0.591175 0.0134742
-0.190954 -1 -5.09079e-09
-0.265461 -0.278929 0.0213527
-0.0908384 -0.236784 0.00230977
0 0 0.000929567
0 0 -0.00587105
-0.0529135 -0.584872 0.00406452
-0.0610671 -1 7.37391e-09
-0.0338513 -0.241377 -0.000859812
0 0 -0.00574973
-0.00324857 -0.587815 0.010276
-0.00132277 -1 1.76999e-08
-0.00393882 -0.245648 0.00403671
0 0 0.000240247
0.0403627 -0.584929 0.0206857
0.0564204 -1 2.29886e-08
0.0265527 -0.241061 0.00830824
0 0 0.00673338
0.156936 -0.590468 0.0114414
0.185791 -1 2.45786e-08
0.082018 -0.235376 0.00694274
0 0 0.0063574
0.413839 -0.604343 -0.0230006
0.486974 -1 2.7711e-08
0.256414 -0.275675 -0.0142534
0 0 0.000284115
0 0 -0.000929567
0 0 0.0451606
0 0 0.0351063
0 0 0.00587107
-0.265461 0.278929 -0.0213527
-0.283888 0.300157 0.027308
-0.0946581 0.260961 0.0250063
-0.0908384 0.236784 -0.00230975
0 0 0.121017
0 0 0.0694543
-0.25911 0.278876 0.0871146
-0.0750889 0.248026 0.0495877
0 0 0.0177467
0 0 0.00574976
-0.0333499 0.263923 0.0131362
-0.0338513 0.241377 0.000859849
0 0 0.0293831
-0.0213421 0.252956 0.0222191
0 0 0.000765466
0 0 -0.000240196
6.47116e-05 0.267185 -0.000153651
-0.00393883 0.245648 -0.00403666
0 0 0.000479527
0.0102422 0.255609 -0.00369501
0 0 -0.0153361
0 0 -0.00673332
0.0338377 0.262919 -0.0170126
0.0265527 0.241061 -0.00830818
0 0 -0.0296938
0.0412147 0.250671 -0.0280099
0 0 -0.033245
0 0 -0.00635735
0.0957261 0.258918 -0.0267005
0.0820179 0.235376 -0.00694268
0 0 -0.0685031
0.100235 0.24579 -0.0589185
0 0 -0.0410526
0 0 -0.000284055
0.283901 0.298024 -0.0324849
0.256414 0.275675 0.0142534
0 0 -0.120776
0.282073 0.284204 -0.0887961
-0.436528 0.610685 -0.059125
-0.443214 0.633588 -0.00158821
-0.182725 0.614063 -0.0116969
-0.165967 0.591175 -0.0134742
-0.377801 0.631525 0.0136594
-0.139619 0.615115 0.0181235
-0.0643788 0.607474 -0.00757759
-0.0529135 0.584872 -0.00406449
-0.0343421 0.603726 0.0116874
-0.00659264 0.608379 -0.0221078
-0.00324857 0.587815 -0.0102759
0.0220421 0.599138 -0.00870088
0.050595 0.606615 -0.0170263
0.0403627 0.584929 -0.0206857
0.091112 0.600351 -0.0373386
0.171264 0.611378 -0.0409291
0.156936 0.590468 -0.0114413
0.190506 0.606676 -0.0449787
0.43089 0.624649 -0.0180068
0.413839 0.604343 0.0230006
0.458975 0.622925 -0.0625165
0 0 0.0138302
0 0 0.00588396
-0.211997 -0.252903 0.0315874
-0.0713284 -0.21123 0.0114187
0 0 0
0 0 0
-0.185443 -0.236673 0
-0.0558762 -0.198983 0
0 0 0.00111633
-0.0262866 -0.214328 0.00200615
0 0 0
-0.0235733 -0.196725 0
0 0 0.00149394
-0.00106714 -0.217944 0.00280182
0 0 0
8.84032e-05 -0.199543 0
0 0 0.00174076
0.0235496 -0.21403 0.00418388
0 0 0
0.0238569 -0.196392 0
0 0 -0.00264135
0.0686618 -0.209915 -0.00487834
0 0 0
0.0560495 -0.197749 0
0 0 -0.0109925
0.207372 -0.24951 -0.0236689
0 0 0
0.185441 -0.23341 0
-0.335617 -0.470282 0.100222
-0.126199 -0.449404 0.00592248
-0.156799 -0.454162 0
-0.112127 -0.438059 0
-0.0438569 -0.446875 0.00337997
-0.0390804 -0.42852 0
-2.91554e-05 -0.44789 0.00383673
0.00129176 -0.429144 0
0.044423 -0.44672 0.00482244
0.0413192 -0.428185 0
0.125254 -0.448216 0.00324881
0.114636 -0.436736 0
0.3369 -0.466792 -0.0893903
0.159705 -0.451291 0
-0.392173 -1 -1.44861e-08
-0.13976 -1 -2.42171e-09
-0.0718605 -2.16801e-08 -1.11522e-08
-0.137565 -1.85409e-08 -8.22581e-10
-0.0516266 -1 7.22243e-09
-0.0450477 -1.42387e-08 7.7156e-09
0.00126322 -1 1.49792e-08
0.00211644 -5.7878e-09 1.47492e-08
0.0541679 -1 1.91435e-08
0.0491852 2.81339e-09 1.94875e-08
0.141428 -1 2.09255e-08
0.141815 1.08919e-08 2.11397e-08
0.395923 -1 2.14067e-08
0.077879 1.37566e-08 2.19568e-08
-0.156799 0.454162 0
-0.112127 0.438059 0
-0.335617 0.470282 -0.100222
-0.126199 0.449404 -0.00592247
-0.185443 0.236673 0
-0.0558762 0.198983 0
-0.211997 0.252903 -0.0315874
-0.0713284 0.21123 -0.0114187
0 0 0
0 0 0
0 0 -0.0138302
0 0 -0.00588394
-0.0390804 0.42852 0
-0.0438569 0.446875 -0.00337995
-0.0235733 0.196725 0
-0.0262866 0.214328 -0.00200612
0 0 0
0 0 -0.0011163
0.00129176 0.429144 0
-2.91627e-05 0.44789 -0.0038367
8.83961e-05 0.199543 0
-0.00106715 0.217944 -0.00280179
0 0 0
0 0 -0.00149391
0.0413191 0.428185 0
0.044423 0.44672 -0.0048224
0.0238569 0.196392 0
0.0235496 0.21403 -0.00418385
0 0 0
0 0 -0.00174072
0.114636 0.436736 0
0.125254 0.448216 -0.00324877
0.0560495 0.197749 0
0.0686618 0.209915 0.00487838
0 0 0
0 0 0.00264138
0.159705 0.451291 0
0.3369 0.466792 0.0893903
0.185441 0.23341 0
0.207372 0.24951 0.023669
0 0 0
0 0 0.0109925
-0.404571 1 -0.125
-0.138115 1 -0.125
-0.48514 1 -0.125
-0.207547 1 -4.91146e-09
-0.0124525 1 -0.125
-0.0709921 1 1.02475e-08
0.0526614 1 -0.125
-0.00189542 1 2.39268e-08
0.12117 1 -0.125
0.068172 1 -0.125
0.246903 1 -0.125
0.205768 1 3.74068e-08
0.527236 1 -0.125
0.488924 1 -0.125
-0.495626 1 -2.00442e-08
-0.190954 1 -3.8212e-09
-0.0610671 1 8.48207e-09
-0.00132278 1 1.87713e-08
0.0564204 1 2.54314e-08
0.185791 1 2.71175e-08
0.486974 1 2.58588e-08
-0.392173 1 -1.27625e-08
-0.13976 1 -1.85981e-09
-0.0718605 -1.7923e-08 -1.00296e-08
-0.137565 -1.78737e-08 3.45151e-10
-0.0516266 1 7.50472e-09
-0.0450477 -1.43849e-08 9.28438e-09
0.00126322 1 1.49387e-08
0.00211644 -5.92074e-09 1.55637e-08
0.0541679 1 1.95892e-08
0.0491852 4.6334e-09 1.84741e-08
0.141428 1 2.08376e-08
0.141815 1.20668e-08 1.99411e-08
0.395923 1 2.11492e-08
0.077879 1.37566e-08 2.19568e-08
