# vtk DataFile Version 2.0
Simplicial Mesh Example
ASCII
DATASET UNSTRUCTURED_GRID
POINTS 56 double
0 3000 4.54747e-13
1000 3000 0
1000 2000 0
0 2000 4.54747e-13
2000 3000 0
2000 2000 0
3000 3000 0
3000 2000 0
1000 1000 0
0 1000 4.54747e-13
2000 1000 0
3000 1000 0
1000 0 0
0 0 4.54747e-13
2000 1.13687e-13 0
3000 0 0
1000 -1000 0
0 -1000 4.54747e-13
2000 -1000 0
3000 -1000 0
1000 -2000 0
0 -2000 4.54747e-13
2000 -2000 0
3000 -2000 0
1000 -3000 0
0 -3000 4.54747e-13
2000 -3000 0
3000 -3000 0
-3000 3000 0
-3000 2000 0
-2000 3000 0
-2000 2000 0
-3000 1000 0
-2000 1000 0
-3000 0 0
-2000 -1.13687e-13 0
-3000 -1000 0
-2000 -1000 0
-3000 -2000 0
-2000 -2000 0
-3000 -3000 0
-2000 -3000 0
-1000 3000 0
-1000 2000 0
-1000 1000 0
-1000 0 0
-1000 -1000 0
-1000 -2000 0
-1000 -3000 0
0 3000 4.54747e-13
0 2000 4.54747e-13
0 1000 4.54747e-13
0 0 4.54747e-13
0 -1000 4.54747e-13
0 -2000 4.54747e-13
0 -3000 4.54747e-13
CELLS 36 180
4  3 2 1 0
4  2 5 4 1
4  5 7 6 4
4  9 8 2 3
4  8 10 5 2
4  10 11 7 5
4  13 12 8 9
4  12 14 10 8
4  14 15 11 10
4  17 16 12 13
4  16 18 14 12
4  18 19 15 14
4  21 20 16 17
4  20 22 18 16
4  22 23 19 18
4  25 24 20 21
4  24 26 22 20
4  26 27 23 22
4  29 31 30 28
4  32 33 31 29
4  34 35 33 32
4  36 37 35 34
4  38 39 37 36
4  40 41 39 38
4  31 43 42 30
4  33 44 43 31
4  35 45 44 33
4  37 46 45 35
4  39 47 46 37
4  41 48 47 39
4  43 50 49 42
4  44 51 50 43
4  45 52 51 44
4  46 53 52 45
4  47 54 53 46
4  48 55 54 47
CELL_TYPES 36
9
9
9
9
9
9
9
9
9
9
9
9
9
9
9
9
9
9
9
9
9
9
9
9
9
9
9
9
9
9
9
9
9
9
9
9
POINT_DATA 56
VECTORS displacements double
-0.404571 -1 0.125
-0.377801 -0.631525 -0.0136594
-0.139619 -0.615115 -0.0181235
-0.138115 -1 0.125
-0.25911 -0.278875 -0.0871146
-0.0750889 -0.248026 -0.0495877
0 0 -0.121017
0 0 -0.0694543
-0.0343421 -0.603726 -0.0116874
-0.0124526 -1 0.125
-0.0213421 -0.252956 -0.022219
0 0 -0.0293831
0.022042 -0.599138 0.00870094
0.0526614 -1 0.125
0.0102422 -0.255609 0.00369506
0 0 -0.000479475
0.091112 -0.600351 0.0373386
0.12117 -1 0.125
0.0412147 -0.250671 0.02801
0 0 0.0296939
0.190506 -0.606676 0.0449788
0.246903 -1 0.125
0.100235 -0.24579 0.0589186
0 0 0.0685032
0.458975 -0.622925 0.0625166
0.527236 -1 0.125
0.282073 -0.284204 0.0887962
0 0 0.120776
0 0 0.121017
0 0 0.0694543
-0.25911 0.278876 0.0871146
-0.0750889 0.248026 0.0495877
0 0 0.0293831
-0.0213421 0.252956 0.0222191
0 0 0.000479527
0.0102422 0.255609 -0.00369501
0 0 -0.0296938
0.0412147 0.250671 -0.0280099
0 0 -0.0685031
0.100235 0.24579 -0.0589185
0 0 -0.120776
0.282073 0.284204 -0.0887961
-0.377801 0.631525 0.0136594
-0.139619 0.615115 0.0181235
-0.0343421 0.603726 0.0116874
0.0220421 0.599138 -0.00870088
0.091112 0.600351 -0.0373386
0.190506 0.606676 -0.0449787
0.458975 0.622925 -0.0625165
-0.404571 1 -0.125
-0.138115 1 -0.125
-0.0124525 1 -0.125
0.0526614 1 -0.125
0.12117 1 -0.125
0.246903 1 -0.125
0.527236 1 -0.125
