# vtk DataFile Version 2.0
Simplicial Mesh Example
ASCII
DATASET UNSTRUCTURED_GRID
POINTS 245 double
0 3000 4.54747e-13
1000 3000 0
1000 2000 0
0 2000 4.54747e-13
0 3000 -1000
1000 3000 -1000
1000 2000 -1000
0 2000 -1000
2000 3000 0
2000 2000 0
2000 3000 -1000
2000 2000 -1000
3000 3000 0
3000 2000 0
3000 3000 -1000
3000 2000 -1000
1000 1000 0
0 1000 4.54747e-13
1000 1000 -1000
0 1000 -1000
2000 1000 0
2000 1000 -1000
3000 1000 0
3000 1000 -1000
1000 0 0
0 0 4.54747e-13
1000 9.4739e-14 -1000
0 1.13687e-13 -1000
2000 1.13687e-13 0
2000 4.73695e-14 -1000
3000 0 0
3000 0 -1000
1000 -1000 0
0 -1000 4.54747e-13
1000 -1000 -1000
0 -1000 -1000
2000 -1000 0
2000 -1000 -1000
3000 -1000 0
3000 -1000 -1000
1000 -2000 0
0 -2000 4.54747e-13
1000 -2000 -1000
0 -2000 -1000
2000 -2000 0
2000 -2000 -1000
3000 -2000 0
3000 -2000 -1000
1000 -3000 0
0 -3000 4.54747e-13
1000 -3000 -1000
0 -3000 -1000
2000 -3000 0
2000 -3000 -1000
3000 -3000 0
3000 -3000 -1000
0 3000 -2000
1000 3000 -2000
1000 2000 -2000
0 2000 -2000
2000 3000 -2000
2000 2000 -2000
3000 3000 -2000
3000 2000 -2000
1000 1000 -2000
0 1000 -2000
2000 1000 -2000
3000 1000 -2000
1000 2.27374e-13 -2000
0 2.27374e-13 -2000
2000 0 -2000
3000 0 -2000
1000 -1000 -2000
0 -1000 -2000
2000 -1000 -2000
3000 -1000 -2000
1000 -2000 -2000
0 -2000 -2000
2000 -2000 -2000
3000 -2000 -2000
1000 -3000 -2000
0 -3000 -2000
2000 -3000 -2000
3000 -3000 -2000
-3000 3000 -2000
-3000 3000 -1000
-3000 2000 -1000
-3000 2000 -2000
-2000 3000 -2000
-2000 3000 -1000
-2000 2000 -1000
-2000 2000 -2000
-3000 3000 0
-3000 2000 0
-2000 3000 0
-2000 2000 0
-3000 1000 -1000
-3000 1000 -2000
-2000 1000 -1000
-2000 1000 -2000
-3000 1000 0
-2000 1000 0
-3000 0 -1000
-3000 0 -2000
-2000 -9.4739e-15 -1000
-2000 0 -2000
-3000 0 0
-2000 -1.13687e-13 0
-3000 -1000 -1000
-3000 -1000 -2000
-2000 -1000 -1000
-2000 -1000 -2000
-3000 -1000 0
-2000 -1000 0
-3000 -2000 -1000
-3000 -2000 -2000
-2000 -2000 -1000
-2000 -2000 -2000
-3000 -2000 0
-2000 -2000 0
-3000 -3000 -1000
-3000 -3000 -2000
-2000 -3000 -1000
-2000 -3000 -2000
-3000 -3000 0
-2000 -3000 0
-1000 3000 -2000
-1000 3000 -1000
-1000 2000 -1000
-1000 2000 -2000
-1000 3000 0
-1000 2000 0
-1000 1000 -1000
-1000 1000 -2000
-1000 1000 0
-1000 9.4739e-14 -1000
-1000 2.27374e-13 -2000
-1000 0 0
-1000 -1000 -1000
-1000 -1000 -2000
-1000 -1000 0
-1000 -2000 -1000
-1000 -2000 -2000
-1000 -2000 0
-1000 -3000 -1000
-1000 -3000 -2000
-1000 -3000 0
3000 3000 -3000
3000 2000 -3000
2000 3000 -3000
2000 2000 -3000
3000 3000 -4000
3000 2000 -4000
2000 3000 -4000
2000 2000 -4000
3000 1000 -3000
2000 1000 -3000
3000 1000 -4000
2000 1000 -4000
3000 0 -3000
2000 -4.73695e-14 -3000
3000 0 -4000
2000 -1.13687e-13 -4000
3000 -1000 -3000
2000 -1000 -3000
3000 -1000 -4000
2000 -1000 -4000
3000 -2000 -3000
2000 -2000 -3000
3000 -2000 -4000
2000 -2000 -4000
3000 -3000 -3000
2000 -3000 -3000
3000 -3000 -4000
2000 -3000 -4000
1000 3000 -3000
1000 2000 -3000
1000 3000 -4000
1000 2000 -4000
1000 1000 -3000
1000 1000 -4000
1000 1.89478e-14 -3000
1000 0 -4000
1000 -1000 -3000
1000 -1000 -4000
1000 -2000 -3000
1000 -2000 -4000
1000 -3000 -3000
1000 -3000 -4000
0 3000 -3000
0 2000 -3000
0 3000 -4000
0 2000 -4000
0 1000 -3000
0 1000 -4000
0 -1.13687e-13 -3000
0 0 -4000
0 -1000 -3000
0 -1000 -4000
0 -2000 -3000
0 -2000 -4000
0 -3000 -3000
0 -3000 -4000
-1000 3000 -4000
-1000 2000 -4000
-1000 3000 -3000
-1000 2000 -3000
-2000 3000 -4000
-2000 2000 -4000
-2000 3000 -3000
-2000 2000 -3000
-3000 3000 -4000
-3000 2000 -4000
-3000 3000 -3000
-3000 2000 -3000
-1000 1000 -4000
-1000 1000 -3000
-2000 1000 -4000
-2000 1000 -3000
-3000 1000 -4000
-3000 1000 -3000
-1000 0 -4000
-1000 1.89478e-14 -3000
-2000 1.13687e-13 -4000
-2000 9.4739e-15 -3000
-3000 0 -4000
-3000 0 -3000
-1000 -1000 -4000
-1000 -1000 -3000
-2000 -1000 -4000
-2000 -1000 -3000
-3000 -1000 -4000
-3000 -1000 -3000
-1000 -2000 -4000
-1000 -2000 -3000
-2000 -2000 -4000
-2000 -2000 -3000
-3000 -2000 -4000
-3000 -2000 -3000
-1000 -3000 -4000
-1000 -3000 -3000
-2000 -3000 -4000
-2000 -3000 -3000
-3000 -3000 -4000
-3000 -3000 -3000
CELLS 144 1296
8  0 1 2 3 4 5 6 7
8  1 8 9 2 5 10 11 6
8  8 12 13 9 10 14 15 11
8  3 2 16 17 7 6 18 19
8  2 9 20 16 6 11 21 18
8  9 13 22 20 11 15 23 21
8  17 16 24 25 19 18 26 27
8  16 20 28 24 18 21 29 26
8  20 22 30 28 21 23 31 29
8  25 24 32 33 27 26 34 35
8  24 28 36 32 26 29 37 34
8  28 30 38 36 29 31 39 37
8  33 32 40 41 35 34 42 43
8  32 36 44 40 34 37 45 42
8  36 38 46 44 37 39 47 45
8  41 40 48 49 43 42 50 51
8  40 44 52 48 42 45 53 50
8  44 46 54 52 45 47 55 53
8  4 5 6 7 56 57 58 59
8  5 10 11 6 57 60 61 58
8  10 14 15 11 60 62 63 61
8  7 6 18 19 59 58 64 65
8  6 11 21 18 58 61 66 64
8  11 15 23 21 61 63 67 66
8  19 18 26 27 65 64 68 69
8  18 21 29 26 64 66 70 68
8  21 23 31 29 66 67 71 70
8  27 26 34 35 69 68 72 73
8  26 29 37 34 68 70 74 72
8  29 31 39 37 70 71 75 74
8  35 34 42 43 73 72 76 77
8  34 37 45 42 72 74 78 76
8  37 39 47 45 74 75 79 78
8  43 42 50 51 77 76 80 81
8  42 45 53 50 76 78 82 80
8  45 47 55 53 78 79 83 82
8  84 85 86 87 88 89 90 91
8  85 92 93 86 89 94 95 90
8  87 86 96 97 91 90 98 99
8  86 93 100 96 90 95 101 98
8  97 96 102 103 99 98 104 105
8  96 100 106 102 98 101 107 104
8  103 102 108 109 105 104 110 111
8  102 106 112 108 104 107 113 110
8  109 108 114 115 111 110 116 117
8  108 112 118 114 110 113 119 116
8  115 114 120 121 117 116 122 123
8  114 118 124 120 116 119 125 122
8  88 89 90 91 126 127 128 129
8  89 94 95 90 127 130 131 128
8  91 90 98 99 129 128 132 133
8  90 95 101 98 128 131 134 132
8  99 98 104 105 133 132 135 136
8  98 101 107 104 132 134 137 135
8  105 104 110 111 136 135 138 139
8  104 107 113 110 135 137 140 138
8  111 110 116 117 139 138 141 142
8  110 113 119 116 138 140 143 141
8  117 116 122 123 142 141 144 145
8  116 119 125 122 141 143 146 144
8  126 127 128 129 56 4 7 59
8  127 130 131 128 4 0 3 7
8  129 128 132 133 59 7 19 65
8  128 131 134 132 7 3 17 19
8  133 132 135 136 65 19 27 69
8  132 134 137 135 19 17 25 27
8  136 135 138 139 69 27 35 73
8  135 137 140 138 27 25 33 35
8  139 138 141 142 73 35 43 77
8  138 140 143 141 35 33 41 43
8  142 141 144 145 77 43 51 81
8  141 143 146 144 43 41 49 51
8  62 147 148 63 60 149 150 61
8  147 151 152 148 149 153 154 150
8  63 148 155 67 61 150 156 66
8  148 152 157 155 150 154 158 156
8  67 155 159 71 66 156 160 70
8  155 157 161 159 156 158 162 160
8  71 159 163 75 70 160 164 74
8  159 161 165 163 160 162 166 164
8  75 163 167 79 74 164 168 78
8  163 165 169 167 164 166 170 168
8  79 167 171 83 78 168 172 82
8  167 169 173 171 168 170 174 172
8  60 149 150 61 57 175 176 58
8  149 153 154 150 175 177 178 176
8  61 150 156 66 58 176 179 64
8  150 154 158 156 176 178 180 179
8  66 156 160 70 64 179 181 68
8  156 158 162 160 179 180 182 181
8  70 160 164 74 68 181 183 72
8  160 162 166 164 181 182 184 183
8  74 164 168 78 72 183 185 76
8  164 166 170 168 183 184 186 185
8  78 168 172 82 76 185 187 80
8  168 170 174 172 185 186 188 187
8  57 175 176 58 56 189 190 59
8  175 177 178 176 189 191 192 190
8  58 176 179 64 59 190 193 65
8  176 178 180 179 190 192 194 193
8  64 179 181 68 65 193 195 69
8  179 180 182 181 193 194 196 195
8  68 181 183 72 69 195 197 73
8  181 182 184 183 195 196 198 197
8  72 183 185 76 73 197 199 77
8  183 184 186 185 197 198 200 199
8  76 185 187 80 77 199 201 81
8  185 186 188 187 199 200 202 201
8  191 203 204 192 189 205 206 190
8  203 207 208 204 205 209 210 206
8  207 211 212 208 209 213 214 210
8  192 204 215 194 190 206 216 193
8  204 208 217 215 206 210 218 216
8  208 212 219 217 210 214 220 218
8  194 215 221 196 193 216 222 195
8  215 217 223 221 216 218 224 222
8  217 219 225 223 218 220 226 224
8  196 221 227 198 195 222 228 197
8  221 223 229 227 222 224 230 228
8  223 225 231 229 224 226 232 230
8  198 227 233 200 197 228 234 199
8  227 229 235 233 228 230 236 234
8  229 231 237 235 230 232 238 236
8  200 233 239 202 199 234 240 201
8  233 235 241 239 234 236 242 240
8  235 237 243 241 236 238 244 242
8  189 205 206 190 56 126 129 59
8  205 209 210 206 126 88 91 129
8  209 213 214 210 88 84 87 91
8  190 206 216 193 59 129 133 65
8  206 210 218 216 129 91 99 133
8  210 214 220 218 91 87 97 99
8  193 216 222 195 65 133 136 69
8  216 218 224 222 133 99 105 136
8  218 220 226 224 99 97 103 105
8  195 222 228 197 69 136 139 73
8  222 224 230 228 136 105 111 139
8  224 226 232 230 105 103 109 111
8  197 228 234 199 73 139 142 77
8  228 230 236 234 139 111 117 142
8  230 232 238 236 111 109 115 117
8  199 234 240 201 77 142 145 81
8  234 236 242 240 142 117 123 145
8  236 238 244 242 117 115 121 123
CELL_TYPES 144
12
12
12
12
12
12
12
12
12
12
12
12
12
12
12
12
12
12
12
12
12
12
12
12
12
12
12
12
12
12
12
12
12
12
12
12
12
12
12
12
12
12
12
12
12
12
12
12
12
12
12
12
12
12
12
12
12
12
12
12
12
12
12
12
12
12
12
12
12
12
12
12
12
12
12
12
12
12
12
12
12
12
12
12
12
12
12
12
12
12
12
12
12
12
12
12
12
12
12
12
12
12
12
12
12
12
12
12
12
12
12
12
12
12
12
12
12
12
12
12
12
12
12
12
12
12
12
12
12
12
12
12
12
12
12
12
12
12
12
12
12
12
12
12
POINT_DATA 245
VECTORS displacements double
-0.44041 -1.04003e-09 2.82046e-09
-0.397305 0.383091 -0.0733672
-0.144778 0.398084 -0.0495388
-0.169207 -7.86283e-10 1.55055e-09
-0.476942 -1.15993e-09 3.37441e-09
-0.431287 0.364187 -0.0496796
-0.174438 0.380759 -0.0351022
-0.202057 -9.91393e-10 1.86238e-09
-0.258361 0.731711 -0.141524
-0.0774663 0.764003 -0.0897076
-0.284549 0.694572 -0.0891828
-0.0949383 0.73404 -0.0634292
0 1 -0.175157
0 1 -0.109696
0 1 -0.101637
0 1 -0.0765039
-0.0427984 0.401507 -0.0241558
-0.0511133 -1.59227e-09 3.3647e-10
-0.0573348 0.385708 -0.0178986
-0.067701 -1.40805e-09 8.61912e-10
-0.0252417 0.756273 -0.0436482
-0.0337138 0.72905 -0.0317804
0 1 -0.0488973
0 1 -0.0370657
-1.43548e-09 0.39973 -1.15589e-09
-1.80538e-09 -1.16449e-09 2.64505e-11
-1.83633e-09 0.384358 -4.84401e-10
-2.10013e-09 -1.15426e-09 3.77872e-11
9.37802e-11 0.750759 -1.46166e-09
-6.50998e-10 0.724577 -1.14984e-09
0 1 -1.23443e-09
0 1 -1.40411e-09
0.0427984 0.401507 0.0241558
0.0511133 -1.32123e-09 -4.39948e-11
0.0573348 0.385708 0.0178986
0.067701 -7.13763e-10 -1.57388e-10
0.0252417 0.756273 0.0436482
0.0337138 0.72905 0.0317804
0 1 0.0488973
0 1 0.0370657
0.144778 0.398084 0.0495388
0.169207 -1.65232e-09 2.9258e-10
0.174438 0.380759 0.0351022
0.202057 -9.62105e-10 3.30621e-10
0.0774663 0.764003 0.0897076
0.0949383 0.73404 0.0634292
0 1 0.109696
0 1 0.0765039
0.397305 0.383091 0.0733672
0.44041 -8.86959e-10 1.48204e-09
0.431287 0.364187 0.0496796
0.476942 -7.33616e-10 1.02214e-09
0.258361 0.731711 0.141524
0.284549 0.694572 0.0891828
0 1 0.175157
0 1 0.101637
-0.481373 -1.57723e-09 3.21709e-09
-0.435282 0.356123 -0.0284017
-0.181559 0.374614 -0.021494
-0.210761 -8.45833e-10 1.54429e-09
-0.287113 0.686113 -0.0487697
-0.0979035 0.730022 -0.0380929
0 1 -0.055933
0 1 -0.0448803
-0.0618199 0.380926 -0.0112796
-0.0731795 4.43642e-10 6.5579e-10
-0.0362934 0.725392 -0.0200145
0 1 -0.0233613
-1.94161e-09 0.379799 -3.55154e-10
-2.39029e-09 1.82554e-10 -6.27145e-11
-1.59001e-09 0.720907 -3.41847e-10
0 1 -4.75782e-10
0.0618199 0.380926 0.0112796
0.0731794 -1.25547e-09 -2.75542e-10
0.0362934 0.725392 0.0200145
0 1 0.0233613
0.181559 0.374614 0.021494
0.210761 -1.32216e-09 2.10952e-10
0.0979035 0.730022 0.0380929
0 1 0.0448803
0.435282 0.356123 0.0284017
0.481373 -1.22372e-09 2.76209e-10
0.287113 0.686113 0.0487697
0 1 0.055933
0 -1 0.055933
0 -1 0.101637
0 -1 0.0765039
0 -1 0.0448803
-0.287113 -0.686113 0.0487697
-0.284549 -0.694572 0.0891828
-0.0949383 -0.73404 0.0634292
-0.0979035 -0.730022 0.0380929
0 -1 0.175157
0 -1 0.109696
-0.258361 -0.731711 0.141524
-0.0774663 -0.764003 0.0897076
0 -1 0.0370657
0 -1 0.0233613
-0.0337138 -0.72905 0.0317804
-0.0362934 -0.725392 0.0200145
0 -1 0.0488973
-0.0252417 -0.756273 0.0436482
0 -1 2.87774e-09
0 -1 4.02642e-09
-1.3101e-09 -0.724577 2.20709e-09
-1.19439e-09 -0.720907 3.16854e-09
0 -1 2.94947e-09
-5.83614e-10 -0.750759 2.61004e-09
0 -1 -0.0370657
0 -1 -0.0233613
0.0337138 -0.72905 -0.0317804
0.0362934 -0.725392 -0.0200145
0 -1 -0.0488973
0.0252417 -0.756273 -0.0436482
0 -1 -0.0765039
0 -1 -0.0448803
0.0949383 -0.73404 -0.0634292
0.0979035 -0.730022 -0.0380929
0 -1 -0.109696
0.0774663 -0.764003 -0.0897076
0 -1 -0.101637
0 -1 -0.055933
0.284549 -0.694572 -0.0891828
0.287113 -0.686113 -0.0487697
0 -1 -0.175157
0.258361 -0.731711 -0.141524
-0.435282 -0.356123 0.0284017
-0.431287 -0.364187 0.0496796
-0.174438 -0.380759 0.0351022
-0.181559 -0.374614 0.021494
-0.397305 -0.383091 0.0733672
-0.144778 -0.398084 0.0495388
-0.0573348 -0.385708 0.0178986
-0.0618199 -0.380926 0.0112796
-0.0427984 -0.401507 0.0241558
-2.12069e-09 -0.384358 8.49963e-10
-2.34713e-09 -0.379799 1.30997e-09
-1.44342e-09 -0.39973 1.32355e-09
0.0573348 -0.385708 -0.0178986
0.0618199 -0.380926 -0.0112796
0.0427984 -0.401507 -0.0241558
0.174438 -0.380759 -0.0351022
0.181559 -0.374614 -0.021494
0.144778 -0.398084 -0.0495388
0.431287 -0.364187 -0.0496796
0.435282 -0.356123 -0.0284017
0.397305 -0.383091 -0.0733672
0 1 -0.0247248
0 1 -0.0203687
-0.286541 0.683622 -0.0214187
-0.0974043 0.729912 -0.0173732
0 1 0
0 1 0
-0.286028 0.683068 0
-0.0969965 0.730078 0
0 1 -0.0109785
-0.0364714 0.725731 -0.00943408
0 1 0
-0.0363421 0.726111 0
0 1 -4.62951e-11
-6.77268e-10 0.721199 -3.10868e-10
0 1 0
-3.40137e-10 0.721587 0
0 1 0.0109785
0.0364714 0.725731 0.00943408
0 1 0
0.0363421 0.726111 0
0 1 0.0203687
0.0974043 0.729912 0.0173732
0 1 0
0.0969965 0.730078 0
0 1 0.0247248
0.286541 0.683622 0.0214187
0 1 0
0.286028 0.683068 0
-0.43382 0.354139 -0.0124498
-0.181534 0.373749 -0.00994292
-0.432903 0.353779 0
-0.181022 0.373765 0
-0.062344 0.380576 -0.0053527
-0.062186 0.380753 0
-1.57647e-09 0.379564 9.29862e-11
-2.67522e-10 0.379766 0
0.062344 0.380576 0.0053527
0.062186 0.380753 0
0.181534 0.373749 0.00994292
0.181022 0.373765 0
0.43382 0.354139 0.0124498
0.432903 0.353779 0
-0.479585 -4.44659e-10 9.29026e-10
-0.211018 1.21934e-10 7.40873e-10
-0.478471 -1.6777e-09 0
-0.210479 -1.1692e-10 0
-0.0739074 3.42431e-10 4.19991e-10
-0.0737727 -4.7462e-11 0
-2.05353e-09 5.39277e-12 1.58503e-10
-1.23106e-09 2.64536e-10 0
0.0739074 -3.10844e-10 1.26401e-10
0.0737727 9.2147e-11 0
0.211018 -1.3781e-09 -1.22254e-10
0.210479 -1.05161e-09 0
0.479585 -1.71243e-09 -7.06421e-11
0.478471 -1.73175e-09 0
-0.432903 -0.353779 0
-0.181022 -0.373765 0
-0.43382 -0.354139 0.0124498
-0.181534 -0.373749 0.00994292
-0.286028 -0.683068 0
-0.0969965 -0.730078 0
-0.286541 -0.683622 0.0214187
-0.0974043 -0.729912 0.0173732
0 -1 0
0 -1 0
0 -1 0.0247248
0 -1 0.0203687
-0.062186 -0.380753 0
-0.062344 -0.380576 0.0053527
-0.0363421 -0.726111 0
-0.0364715 -0.725731 0.00943408
0 -1 0
0 -1 0.0109785
-1.21356e-09 -0.379766 0
-1.43392e-09 -0.379564 8.14869e-10
-6.80669e-10 -0.721587 0
-1.48819e-09 -0.721199 1.76266e-09
0 -1 0
0 -1 2.05114e-09
0.062186 -0.380753 0
0.062344 -0.380576 -0.0053527
0.0363421 -0.726111 0
0.0364714 -0.725731 -0.00943407
0 -1 0
0 -1 -0.0109785
0.181022 -0.373765 0
0.181534 -0.373749 -0.00994292
0.0969965 -0.730078 0
0.0974043 -0.729912 -0.0173732
0 -1 0
0 -1 -0.0203687
0.432903 -0.353779 0
0.43382 -0.354139 -0.0124498
0.286028 -0.683068 0
0.286541 -0.683622 -0.0214187
0 -1 0
0 -1 -0.0247248
