# vtk DataFile Version 2.0
Simplicial Mesh Example
ASCII
DATASET UNSTRUCTURED_GRID
POINTS 49 double
0 3000 4.54747e-13
1000 3000 0
1000 2000 0
0 2000 4.54747e-13
2000 3000 0
2000 2000 0
3000 3000 0
3000 2000 0
1000 1000 0
0 1000 4.54747e-13
2000 1000 0
3000 1000 0
1000 0 0
0 0 4.54747e-13
2000 1.13687e-13 0
3000 0 0
1000 -1000 0
0 -1000 4.54747e-13
2000 -1000 0
3000 -1000 0
1000 -2000 0
0 -2000 4.54747e-13
2000 -2000 0
3000 -2000 0
1000 -3000 0
0 -3000 4.54747e-13
2000 -3000 0
3000 -3000 0
-3000 3000 0
-3000 2000 0
-2000 3000 0
-2000 2000 0
-3000 1000 0
-2000 1000 0
-3000 0 0
-2000 -1.13687e-13 0
-3000 -1000 0
-2000 -1000 0
-3000 -2000 0
-2000 -2000 0
-3000 -3000 0
-2000 -3000 0
-1000 3000 0
-1000 2000 0
-1000 1000 0
-1000 0 0
-1000 -1000 0
-1000 -2000 0
-1000 -3000 0
CELLS 36 180
4  3 2 1 0
4  2 5 4 1
4  5 7 6 4
4  9 8 2 3
4  8 10 5 2
4  10 11 7 5
4  13 12 8 9
4  12 14 10 8
4  14 15 11 10
4  17 16 12 13
4  16 18 14 12
4  18 19 15 14
4  21 20 16 17
4  20 22 18 16
4  22 23 19 18
4  25 24 20 21
4  24 26 22 20
4  26 27 23 22
4  29 31 30 28
4  32 33 31 29
4  34 35 33 32
4  36 37 35 34
4  38 39 37 36
4  40 41 39 38
4  31 43 42 30
4  33 44 43 31
4  35 45 44 33
4  37 46 45 35
4  39 47 46 37
4  41 48 47 39
4  43 3 0 42
4  44 9 3 43
4  45 13 9 44
4  46 17 13 45
4  47 21 17 46
4  48 25 21 47
CELL_TYPES 36
9
9
9
9
9
9
9
9
9
9
9
9
9
9
9
9
9
9
9
9
9
9
9
9
9
9
9
9
9
9
9
9
9
9
9
9
POINT_DATA 49
VECTORS displacements double
-0.44041 -1.04003e-09 2.82046e-09
-0.397305 0.383091 -0.0733672
-0.144778 0.398084 -0.0495388
-0.169207 -7.86283e-10 1.55055e-09
-0.258361 0.731711 -0.141524
-0.0774663 0.764003 -0.0897076
0 1 -0.175157
0 1 -0.109696
-0.0427984 0.401507 -0.0241558
-0.0511133 -1.59227e-09 3.3647e-10
-0.0252417 0.756273 -0.0436482
0 1 -0.0488973
-1.43548e-09 0.39973 -1.15589e-09
-1.80538e-09 -1.16449e-09 2.64505e-11
9.37802e-11 0.750759 -1.46166e-09
0 1 -1.23443e-09
0.0427984 0.401507 0.0241558
0.0511133 -1.32123e-09 -4.39948e-11
0.0252417 0.756273 0.0436482
0 1 0.0488973
0.144778 0.398084 0.0495388
0.169207 -1.65232e-09 2.9258e-10
0.0774663 0.764003 0.0897076
0 1 0.109696
0.397305 0.383091 0.0733672
0.44041 -8.86959e-10 1.48204e-09
0.258361 0.731711 0.141524
0 1 0.175157
0 -1 0.175157
0 -1 0.109696
-0.258361 -0.731711 0.141524
-0.0774663 -0.764003 0.0897076
0 -1 0.0488973
-0.0252417 -0.756273 0.0436482
0 -1 2.94947e-09
-5.83614e-10 -0.750759 2.61004e-09
0 -1 -0.0488973
0.0252417 -0.756273 -0.0436482
0 -1 -0.109696
0.0774663 -0.764003 -0.0897076
0 -1 -0.175157
0.258361 -0.731711 -0.141524
-0.397305 -0.383091 0.0733672
-0.144778 -0.398084 0.0495388
-0.0427984 -0.401507 0.0241558
-1.44342e-09 -0.39973 1.32355e-09
0.0427984 -0.401507 -0.0241558
0.144778 -0.398084 -0.0495388
0.397305 -0.383091 -0.0733672
