# vtk DataFile Version 2.0
Resampled DEM
ASCII
DATASET RECTILINEAR_GRID
DIMENSIONS 32 32 1
X_COORDINATES 32 double
2.68950000000e+06  2.69450000000e+06  2.70450000000e+06  2.71250000000e+06  2.71850000000e+06  
2.72250000000e+06  2.72450000000e+06  2.72550000000e+06  2.72650000000e+06  2.72750000000e+06  
2.72850000000e+06  2.72950000000e+06  2.73050000000e+06  2.73150000000e+06  2.73250000000e+06  
2.73350000000e+06  2.73450000000e+06  2.73550000000e+06  2.73650000000e+06  2.73750000000e+06  
2.73850000000e+06  2.73950000000e+06  2.74050000000e+06  2.74150000000e+06  2.74250000000e+06  
2.74350000000e+06  2.74450000000e+06  2.74650000000e+06  2.75050000000e+06  2.75650000000e+06  
2.76450000000e+06  2.76850000000e+06  
Y_COORDINATES 32 double
6.17650000000e+06  6.18050000000e+06  6.18850000000e+06  6.19450000000e+06  6.19850000000e+06  
6.20050000000e+06  6.20150000000e+06  6.20250000000e+06  6.20350000000e+06  6.20450000000e+06  
6.20550000000e+06  6.20650000000e+06  6.20750000000e+06  6.20850000000e+06  6.20950000000e+06  
6.21050000000e+06  6.21150000000e+06  6.21250000000e+06  6.21350000000e+06  6.21450000000e+06  
6.21550000000e+06  6.21650000000e+06  6.21750000000e+06  6.21850000000e+06  6.21950000000e+06  
6.22050000000e+06  6.22250000000e+06  6.22650000000e+06  6.23250000000e+06  6.24050000000e+06  
6.25050000000e+06  6.25550000000e+06  
Z_COORDINATES 1 double
0.0
POINT_DATA 1024
SCALARS elevation double 1
LOOKUP_TABLE default
2.23090041266e+02  2.24777778121e+02  3.90450110097e+02  5.24016279134e+02  4.76129373359e+02  
4.95476862024e+02  4.79529314395e+02  4.82972425109e+02  5.02318441321e+02  5.35922996804e+02  
5.53119571261e+02  5.55149753711e+02  5.33167390046e+02  5.10925173724e+02  4.96458786576e+02  
5.13391943473e+02  5.49686978376e+02  6.03717880814e+02  6.52051756682e+02  6.96657984981e+02  
7.12147873491e+02  7.14111445676e+02  7.04531741674e+02  7.14347595215e+02  7.29080376519e+02  
7.41877723976e+02  7.44048900463e+02  7.53906844526e+02  7.59223807526e+02  5.95462369793e+02  
7.84562017822e+02  7.33234598797e+02  1.85242182170e+02  3.03876995014e+02  3.92518200393e+02  5.63878050342e+02  5.41140984766e+02  
5.60760608545e+02  5.67830598438e+02  5.68212890577e+02  5.66681765772e+02  5.64938344776e+02  
5.64512230372e+02  5.67343515870e+02  5.72032219727e+02  5.81152092286e+02  5.98966183936e+02  
6.23134576856e+02  6.51537774024e+02  6.83205740821e+02  7.14135072022e+02  7.37529460352e+02  
7.56110689942e+02  7.73498371876e+02  7.90984262110e+02  8.11127572755e+02  8.35507487012e+02  
8.61803808692e+02  8.84863836329e+02  9.16038365527e+02  8.87153346876e+02  6.69398928321e+02  
7.80232446289e+02  7.61386446046e+02  4.39260542195e+02  4.51181204642e+02  5.11725247748e+02  5.81874460108e+02  6.14293417822e+02  
5.98181541894e+02  6.13126613477e+02  6.25841097071e+02  6.39650790918e+02  6.53007235840e+02  
6.64012337598e+02  6.73866335352e+02  6.80781899805e+02  6.87642357520e+02  6.96688010645e+02  
7.09252546973e+02  7.24817960254e+02  7.42745595606e+02  7.60576486914e+02  7.76642787695e+02  
7.92074383399e+02  8.06605114844e+02  8.21708815430e+02  8.38516664942e+02  8.58852938086e+02  
8.79753067285e+02  9.00510452148e+02  9.30582914550e+02  8.80760722754e+02  8.44896452929e+02  
7.63470699870e+02  8.36623453613e+02  4.00149048806e+02  4.60869270513e+02  5.15212638620e+02  5.32111378662e+02  6.06722285987e+02  
6.58509640456e+02  6.79973901510e+02  6.95283444643e+02  7.14371968031e+02  7.35288454295e+02  
7.53580128909e+02  7.61681406976e+02  7.60610860110e+02  7.55723503590e+02  7.53978734970e+02  
7.58773764371e+02  7.69628745317e+02  7.83615031480e+02  7.96258458375e+02  8.08909716129e+02  
8.21443459034e+02  8.33614684343e+02  8.47350718021e+02  8.61294820309e+02  8.73238952398e+02  
8.80363359213e+02  8.80629962444e+02  8.64320255756e+02  9.07673644304e+02  1.09736633750e+03  
9.65722200011e+02  1.01635597483e+03  2.81054141008e+02  3.94158855073e+02  5.39945224479e+02  5.76246673243e+02  6.92701034546e+02  
7.42333673925e+02  7.77366738403e+02  7.95058816039e+02  8.18568739904e+02  8.50808006759e+02  
8.85222555280e+02  9.07882272981e+02  9.09304182642e+02  8.98276447061e+02  8.89307462715e+02  
8.87513987599e+02  8.89794020663e+02  8.92379821023e+02  8.96453470865e+02  9.01437266407e+02  
9.05291733729e+02  9.05912269121e+02  9.03705111280e+02  9.04791292920e+02  9.08314532244e+02  
9.12828987781e+02  9.06392728829e+02  8.81934516813e+02  9.54630233527e+02  1.10178057939e+03  
1.11558342478e+03  9.89617578577e+02  2.08896241930e+02  3.33637564082e+02  5.30857421191e+02  6.22284852051e+02  7.64401212931e+02  
8.33181101104e+02  8.99042419430e+02  9.01294677730e+02  9.44505249020e+02  9.40023620610e+02  
9.62285949710e+02  1.05879284668e+03  1.00952893066e+03  9.76785888670e+02  9.81274108890e+02  
1.01528033447e+03  9.74287292480e+02  9.63789184570e+02  9.77244323730e+02  9.85031066890e+02  
9.77280395510e+02  9.69511474610e+02  9.48518493650e+02  9.28773803710e+02  9.31505493160e+02  
9.65760253910e+02  9.41009105683e+02  9.61295731909e+02  1.01101203179e+03  1.11082411211e+03  
1.14137648621e+03  9.97594527633e+02  2.22524540371e+02  3.08037675987e+02  5.17307941789e+02  6.45409645703e+02  7.88570698500e+02  
8.72197628822e+02  9.31752563480e+02  9.54501647950e+02  1.01102001953e+03  1.04674621582e+03  
1.04474218750e+03  1.12805261230e+03  1.05970568848e+03  1.01821063232e+03  1.06652819824e+03  
1.05826684570e+03  1.04147607422e+03  1.02926379395e+03  1.01527307129e+03  1.02647973633e+03  
1.01274462891e+03  9.80504882810e+02  9.61734924320e+02  9.51740417480e+02  9.48485595700e+02  
9.42230651860e+02  9.72061927795e+02  1.00581871880e+03  1.04887893391e+03  1.12492024424e+03  
1.14949130442e+03  9.98785732694e+02  2.56908610025e+02  2.93066193604e+02  5.01700027571e+02  6.64163859375e+02  8.06634714365e+02  
9.08614423587e+02  9.63695678710e+02  1.00921508789e+03  1.02851037598e+03  1.10325573730e+03  
1.08620520020e+03  1.16724182129e+03  1.17397070312e+03  1.13119531250e+03  1.11746459961e+03  
1.12776245117e+03  1.12993859863e+03  1.10121813965e+03  1.06698876953e+03  1.08891320801e+03  
1.03520068359e+03  1.01320782471e+03  9.91694030760e+02  9.81701721190e+02  9.72961425780e+02  
9.64197570800e+02  9.97813205719e+02  1.04125386782e+03  1.08578140473e+03  1.13875333594e+03  
1.15797272664e+03  1.04613191280e+03  2.83380967316e+02  2.85669036488e+02  4.87069220813e+02  6.79440302735e+02  8.22619606971e+02  
9.46366675860e+02  1.00772723389e+03  1.04445605469e+03  1.08193762207e+03  1.15296740723e+03  
1.18088452148e+03  1.23566394043e+03  1.24595178223e+03  1.23013891602e+03  1.26041540527e+03  
1.28721044922e+03  1.22296618652e+03  1.11792028809e+03  1.12242919922e+03  1.14421765137e+03  
1.07191516113e+03  1.04893176270e+03  1.01593090820e+03  1.00991986084e+03  1.00117504883e+03  
9.86679992680e+02  1.01758002854e+03  1.05571014404e+03  1.12560536909e+03  1.15956142656e+03  
1.16587355906e+03  1.11707615605e+03  3.06747496428e+02  2.90444180653e+02  4.75002511024e+02  6.90152767383e+02  8.37610919475e+02  
9.80814474224e+02  1.05441271973e+03  1.10195336914e+03  1.17913208008e+03  1.24723754883e+03  
1.29143933105e+03  1.32538305664e+03  1.38260913086e+03  1.40119628906e+03  1.39957543945e+03  
1.39914965820e+03  1.33217370605e+03  1.24409631348e+03  1.23638159180e+03  1.20940563965e+03  
1.11887097168e+03  1.07564636230e+03  1.04415515137e+03  1.03614929199e+03  1.03013598633e+03  
1.00914849854e+03  1.03009704972e+03  1.06019401569e+03  1.16178985095e+03  1.18167708877e+03  
1.17550259644e+03  1.19508114511e+03  3.23187434161e+02  3.07789725786e+02  4.66555756062e+02  6.97342872461e+02  8.51507958174e+02  
1.01071623249e+03  1.12114636230e+03  1.17318530273e+03  1.25510852051e+03  1.39983435059e+03  
1.40191186523e+03  1.41167797852e+03  1.57610058594e+03  1.56062854004e+03  1.61896240234e+03  
1.52385314941e+03  1.39389331055e+03  1.35259899902e+03  1.31337585449e+03  1.22862707520e+03  
1.13939355469e+03  1.11634265137e+03  1.07286499023e+03  1.06887805176e+03  1.05509838867e+03  
1.03411450195e+03  1.03806424332e+03  1.06523205717e+03  1.20238649607e+03  1.20394609336e+03  
1.18624222768e+03  1.21834199128e+03  3.25337626988e+02  3.32513826841e+02  4.63122940805e+02  7.03196794629e+02  8.62444089651e+02  
1.03196236467e+03  1.15861059570e+03  1.25384753418e+03  1.37235412598e+03  1.46058459473e+03  
1.54235937500e+03  1.62217968750e+03  1.72405957031e+03  1.69685791016e+03  1.79837255859e+03  
1.67194970703e+03  1.41635937500e+03  1.44408789062e+03  1.35407788086e+03  1.28659533691e+03  
1.24286071777e+03  1.14763854980e+03  1.11482885742e+03  1.09983789062e+03  1.07583752441e+03  
1.05356848145e+03  1.04309511566e+03  1.07763764709e+03  1.23375020218e+03  1.22640690352e+03  
1.19711241730e+03  1.19749858941e+03  3.20577623721e+02  3.57962659412e+02  4.66127860929e+02  7.07232491895e+02  8.69284691096e+02  
1.04705867814e+03  1.18941979980e+03  1.28801855469e+03  1.39933593750e+03  1.50843688965e+03  
1.65033874512e+03  1.75930664062e+03  1.94786730957e+03  1.99471472168e+03  2.02582067871e+03  
1.71165380859e+03  1.50739611816e+03  1.56735583496e+03  1.45109802246e+03  1.38400695801e+03  
1.27954235840e+03  1.18355578613e+03  1.16328942871e+03  1.12954882812e+03  1.09930737305e+03  
1.06880480957e+03  1.05117406463e+03  1.08820562669e+03  1.24200993133e+03  1.25392743555e+03  
1.20240350087e+03  1.15103606499e+03  3.27531847637e+02  3.78635634399e+02  4.73394610193e+02  7.09486232032e+02  8.73487532139e+02  
1.05311061077e+03  1.17614465332e+03  1.20181030273e+03  1.36231811523e+03  1.52626452637e+03  
1.74246179199e+03  1.95525427246e+03  2.14140820312e+03  2.41414062500e+03  1.97126147461e+03  
1.69304638672e+03  1.76275415039e+03  1.70150024414e+03  1.53051831055e+03  1.36523608398e+03  
1.29827172852e+03  1.23653149414e+03  1.19403491211e+03  1.15077185059e+03  1.10628100586e+03  
1.07352441406e+03  1.05897154999e+03  1.08613344998e+03  1.24071826863e+03  1.28439672539e+03  
1.20231585388e+03  1.08791019920e+03  3.64302434287e+02  3.96869230365e+02  4.83631366918e+02  7.11943857032e+02  8.74502503634e+02  
1.05576448718e+03  1.19849035645e+03  1.34036987305e+03  1.31082165527e+03  1.44846850586e+03  
1.75713439941e+03  2.05300512695e+03  2.42681640625e+03  2.49482299805e+03  2.37283374023e+03  
1.98748706055e+03  1.88436865234e+03  1.60360949707e+03  1.50276159668e+03  1.40652148438e+03  
1.34352282715e+03  1.28972949219e+03  1.20400170898e+03  1.14922351074e+03  1.11198669434e+03  
1.08199499512e+03  1.06592459106e+03  1.07216999421e+03  1.22162021160e+03  1.31458200352e+03  
1.19414131887e+03  1.02877774613e+03  4.01078271655e+02  4.10606560425e+02  4.96001516189e+02  7.11942691113e+02  8.72813628674e+02  
1.05703374038e+03  1.20299804688e+03  1.35457629395e+03  1.50746997070e+03  1.63498510742e+03  
1.77726623535e+03  2.08545312500e+03  2.49298510742e+03  2.52143383789e+03  2.20648193359e+03  
2.06815698242e+03  1.82332751465e+03  1.61560632324e+03  1.54536718750e+03  1.50996545410e+03  
1.38549450684e+03  1.29246508789e+03  1.21796313477e+03  1.17021423340e+03  1.12570654297e+03  
1.10221228027e+03  1.07373680115e+03  1.05245795507e+03  1.19652593970e+03  1.33726849287e+03  
1.17824526683e+03  9.66468456127e+02  4.05836728980e+02  4.17410297406e+02  5.09261776677e+02  7.08871220410e+02  8.73041467667e+02  
1.05542576015e+03  1.24020886230e+03  1.32467919922e+03  1.42101696777e+03  1.66926354980e+03  
1.93990698242e+03  2.24039306641e+03  2.58108398438e+03  2.57345361328e+03  2.45269775391e+03  
2.15895971680e+03  1.84368591309e+03  1.74116186523e+03  1.52514868164e+03  1.46622521973e+03  
1.46295593262e+03  1.31942382812e+03  1.24220214844e+03  1.18594262695e+03  1.14442919922e+03  
1.10542211914e+03  1.07511340332e+03  1.03343147334e+03  1.16612734699e+03  1.34661104844e+03  
1.16434286001e+03  9.62681292499e+02  3.76767201742e+02  4.21554116379e+02  5.20890421231e+02  7.06120055078e+02  8.84048067331e+02  
1.05910357892e+03  1.24971936035e+03  1.38439514160e+03  1.49713403320e+03  1.66378820801e+03  
1.81743542480e+03  2.05763598633e+03  2.33822607422e+03  2.36874487305e+03  2.55414257812e+03  
2.21015307617e+03  1.80341503906e+03  1.63621093750e+03  1.50290417480e+03  1.43988720703e+03  
1.31338647461e+03  1.32212414551e+03  1.30270104980e+03  1.19714782715e+03  1.13864147949e+03  
1.09990270996e+03  1.06453396988e+03  1.01465480023e+03  1.11714061427e+03  1.33595829717e+03  
1.16340205068e+03  9.69346670645e+02  3.46855289318e+02  4.26988129169e+02  5.29571158821e+02  7.02299749658e+02  9.08174560785e+02  
1.07304528357e+03  1.17018017578e+03  1.31868713379e+03  1.42413281250e+03  1.56609924316e+03  
1.53942883301e+03  1.83763671875e+03  2.03054846191e+03  2.05123022461e+03  2.09767065430e+03  
1.99549475098e+03  1.77137023926e+03  1.61022692871e+03  1.52064331055e+03  1.44710278320e+03  
1.26513854980e+03  1.32305590820e+03  1.28032897949e+03  1.16514514160e+03  1.11637060547e+03  
1.08761059570e+03  1.04364498138e+03  9.95037556212e+02  1.06747677016e+03  1.30703877012e+03  
1.18009236766e+03  9.95696293583e+02  3.60213754159e+02  4.35797669293e+02  5.36913497124e+02  6.97142877734e+02  9.41993066787e+02  
1.10763828306e+03  1.18984326172e+03  1.29665747070e+03  1.39160754395e+03  1.32983459473e+03  
1.41723022461e+03  1.70065478516e+03  1.77809460449e+03  1.85464831543e+03  1.80015087891e+03  
1.83959899902e+03  1.68823681641e+03  1.60486547852e+03  1.51509704590e+03  1.38503417969e+03  
1.29309826660e+03  1.22481262207e+03  1.17759716797e+03  1.17480773926e+03  1.09607946777e+03  
1.05658813477e+03  1.02294747162e+03  9.74488068003e+02  1.01926245379e+03  1.26370966992e+03  
1.21122598602e+03  1.00477372911e+03  4.03766780429e+02  4.45289698589e+02  5.41466831230e+02  6.93637955469e+02  9.72983093739e+02  
1.14896989610e+03  1.15532116699e+03  1.23077954102e+03  1.25636303711e+03  1.24782958984e+03  
1.48137207031e+03  1.51060327148e+03  1.60982971191e+03  1.61648156738e+03  1.65309350586e+03  
1.71237695312e+03  1.53478698730e+03  1.48817211914e+03  1.42259875488e+03  1.40005639648e+03  
1.33479992676e+03  1.22332067871e+03  1.16480529785e+03  1.12833801270e+03  1.07029895020e+03  
1.03505688477e+03  1.00963206101e+03  9.57622239855e+02  9.83107218503e+02  1.21889545293e+03  
1.25556596609e+03  1.07317388238e+03  4.47828834816e+02  4.53357279377e+02  5.42646488495e+02  6.93527518701e+02  9.78786209584e+02  
1.17744340459e+03  1.10455236816e+03  1.19079870605e+03  1.15227368164e+03  1.29156420898e+03  
1.35606860352e+03  1.42477087402e+03  1.57941369629e+03  1.39749816895e+03  1.50377331543e+03  
1.43754846191e+03  1.43304858398e+03  1.33851135254e+03  1.29156628418e+03  1.26429174805e+03  
1.27474633789e+03  1.23530822754e+03  1.15903466797e+03  1.10701489258e+03  1.06076513672e+03  
1.02177514648e+03  1.00346367645e+03  9.48340423961e+02  9.60341727733e+02  1.18239037051e+03  
1.29888683757e+03  1.18276925094e+03  4.64514927052e+02  4.61699502592e+02  5.40822589968e+02  6.92561291308e+02  9.57367610456e+02  
1.16622697543e+03  1.07753173828e+03  1.10676184082e+03  1.20268750000e+03  1.27658630371e+03  
1.27998657227e+03  1.31148339844e+03  1.39969812012e+03  1.34000964355e+03  1.36675256348e+03  
1.41473400879e+03  1.42199853516e+03  1.33275317383e+03  1.27524877930e+03  1.20675317383e+03  
1.18274645996e+03  1.16148535156e+03  1.13249072266e+03  1.07499401855e+03  1.06400085449e+03  
1.05176562500e+03  1.00811184692e+03  9.47876149874e+02  9.38870327234e+02  1.15889605498e+03  
1.32996838582e+03  1.29133516891e+03  4.64085045710e+02  4.66436001554e+02  5.37713327148e+02  6.89371776660e+02  9.16619462253e+02  
1.10436439646e+03  1.02473779297e+03  1.03549023438e+03  1.06472424316e+03  1.18093078613e+03  
1.18572778320e+03  1.23146643066e+03  1.31046459961e+03  1.35146289062e+03  1.36875561523e+03  
1.35470227051e+03  1.37225549316e+03  1.27346008301e+03  1.22321923828e+03  1.18422741699e+03  
1.15272741699e+03  1.12195874023e+03  1.10720117188e+03  1.11746545410e+03  1.07046032715e+03  
1.05345898438e+03  1.02556577301e+03  9.51743423275e+02  9.12032576323e+02  1.13748936797e+03  
1.34848827159e+03  1.31338915563e+03  4.53716639202e+02  4.65243996549e+02  5.32642831660e+02  6.84234638037e+02  8.71681826593e+02  
1.01538153453e+03  9.80190856930e+02  9.85710144040e+02  9.97952026370e+02  1.03992980957e+03  
1.13516735840e+03  1.11921862793e+03  1.15367590332e+03  1.21270275879e+03  1.32368603516e+03  
1.31318676758e+03  1.26793945312e+03  1.24185986328e+03  1.24045202637e+03  1.19569860840e+03  
1.27705993652e+03  1.15816979980e+03  1.13923474121e+03  1.10896386719e+03  1.10868774414e+03  
1.09694531250e+03  1.04898728180e+03  9.51953111438e+02  8.83044088603e+02  1.11970354531e+03  
1.35469896220e+03  1.26809542734e+03  4.33064564459e+02  4.57158411556e+02  5.23134178608e+02  6.74220408300e+02  8.40961424352e+02  
9.35161754467e+02  9.39432964324e+02  9.59086975099e+02  9.88588722231e+02  1.02566169739e+03  
1.05386258697e+03  1.07699546433e+03  1.11420183563e+03  1.17321508026e+03  1.23559631348e+03  
1.26569759369e+03  1.27561386108e+03  1.29780222321e+03  1.30222431183e+03  1.28845221710e+03  
1.27333817291e+03  1.22131313324e+03  1.17228478241e+03  1.15757975769e+03  1.13769211578e+03  
1.10524771881e+03  1.05872929764e+03  9.49151179561e+02  8.53257332088e+02  1.09845984277e+03  
1.34699632507e+03  1.22211429850e+03  3.90351014032e+02  4.26531339857e+02  4.92567182199e+02  6.42292331738e+02  8.12776730777e+02  
8.64984732923e+02  8.87767487703e+02  9.05035369497e+02  9.25951551650e+02  9.46017149372e+02  
9.69623584135e+02  9.99158546730e+02  1.03942396075e+03  1.08906576048e+03  1.15109757864e+03  
1.22266517319e+03  1.30672377900e+03  1.39840134157e+03  1.47447348211e+03  1.49907637985e+03  
1.45890677144e+03  1.38749951323e+03  1.32507214958e+03  1.27714584087e+03  1.22682863438e+03  
1.16243524170e+03  1.09090699448e+03  9.52613060468e+02  8.07211032153e+02  1.03583286777e+03  
1.32382374817e+03  1.28627288140e+03  3.21223958968e+02  3.17931384746e+02  3.88995396885e+02  5.61390264356e+02  7.29635313987e+02  
7.85193395138e+02  8.01298402072e+02  8.15341036797e+02  8.35203308344e+02  8.61680175782e+02  
8.94520933390e+02  9.30700021268e+02  9.71045702458e+02  1.01787628984e+03  1.07516099977e+03  
1.14864933944e+03  1.24829085064e+03  1.36308570003e+03  1.47370603466e+03  1.56234730768e+03  
1.60088918972e+03  1.59121472216e+03  1.54382202387e+03  1.46674904609e+03  1.37169510818e+03  
1.26262148356e+03  1.14747036099e+03  9.41998102188e+02  7.28068967581e+02  8.53886419629e+02  
1.22059235626e+03  1.28842112478e+03  2.46197063029e+02  2.70836414609e+02  2.87957613215e+02  4.58296936817e+02  6.38672815528e+02  
7.17449518165e+02  7.41866935548e+02  7.56260581153e+02  7.70542739747e+02  7.86298658301e+02  
7.97665366602e+02  8.06029255274e+02  8.13643644727e+02  8.22994539258e+02  8.35287182715e+02  
8.53547872363e+02  8.78748756836e+02  9.05278055371e+02  9.28580950293e+02  9.45855632031e+02  
9.49497644726e+02  9.34568765527e+02  9.03809092871e+02  8.60798891015e+02  8.07567001562e+02  
7.52871186132e+02  7.06056337890e+02  6.52120245507e+02  6.13454526708e+02  5.41423531348e+02  
8.76702446848e+02  9.51180866211e+02  2.20939475740e+02  2.75956847450e+02  3.79700783824e+02  4.41061245436e+02  5.41516843796e+02  
6.20457248900e+02  6.11416487611e+02  6.03573292273e+02  5.97220435932e+02  5.95382492890e+02  
6.00798372811e+02  6.11061308708e+02  6.20294495194e+02  6.27263881236e+02  6.32335639577e+02  
6.34748025823e+02  6.33980334341e+02  6.31043524236e+02  6.29478983467e+02  6.31935847388e+02  
6.39584538354e+02  6.52332453833e+02  6.70734610475e+02  6.94428425730e+02  7.20025604672e+02  
7.41371432928e+02  7.54934662854e+02  7.47597997453e+02  5.73833172574e+02  4.15433878557e+02  
5.66600930083e+02  5.91065861173e+02  2.40228327454e+02  2.30294873107e+02  2.17335417926e+02  2.62873055183e+02  2.96029720294e+02  
3.91794123211e+02  4.65206374275e+02  5.01322867282e+02  5.35243018547e+02  5.64330256677e+02  
5.84182140048e+02  6.03816501945e+02  6.19272062296e+02  6.31917540463e+02  6.40305099754e+02  
6.43230109466e+02  6.41543027945e+02  6.33597535827e+02  6.23757560270e+02  6.13523872279e+02  
6.06460978190e+02  6.02750956944e+02  6.02727947078e+02  6.03837185912e+02  6.02665358577e+02  
5.94412154982e+02  5.73780983989e+02  5.11859830124e+02  3.75981144690e+02  3.38866060239e+02  
3.92087272426e+02  4.44667086531e+02  2.47630402458e+02  2.64077028911e+02  2.28419519637e+02  2.29205301392e+02  2.44796651682e+02  
3.70928180837e+02  4.48588382298e+02  5.18623526114e+02  5.91909114131e+02  6.42866459599e+02  
6.53064733434e+02  6.52348829481e+02  6.58074178060e+02  6.81918834544e+02  7.02397815845e+02  
7.00191971390e+02  6.80453554507e+02  6.53627066154e+02  6.32249690304e+02  6.10907536261e+02  
5.81230062981e+02  5.43883486147e+02  5.03918416340e+02  4.87651326496e+02  4.92227776421e+02  
5.15314046224e+02  5.17969160292e+02  4.66276968495e+02  3.81316698393e+02  3.34358647584e+02  
3.43359477233e+02  3.45440470377e+02  