# vtk DataFile Version 2.0
Simplicial Mesh Example
ASCII
DATASET UNSTRUCTURED_GRID
POINTS 16 double
-1 -1 -1
-1 1 -1
0 -1 -1
0 1 -1
1 -1 -1
1 1 -1
-1 -1 1
-1 1 1
0 -1 1
0 1 1
1 -1 1
1 1 1
0 -1 -1
0 1 -1
0 -1 1
0 1 1
CELLS 1 9
8  2 4 5 3 8 10 11 9
CELL_TYPES 1
12
POINT_DATA 16
VECTORS displacements double
1.1 2.2 3.3
4.4 5.5 6.6
7.7 8.8 9.9
10.1 11.2 12.3
1.2 2.3 3.4
4.5 5.6 6.7
7.8 8.9 9
10.2 11.3 12.4
1.3 2.4 3.5
4.6 5.7 6.8
7.9 8 9.1
10.2 11.3 12.4
13.5 14.6 15.7
16.8 17.9 18.1
19.2 20.3 21.4
22.5 23.6 24.7
SCALARS pressure double 1
LOOKUP_TABLE default
2.1
3.2
4.3
5.4
6.5
7.6
8.7
9.8
10
12.1
11.1
13.1
14.1
15.1
16.1
17.1
SCALARS other double 2
LOOKUP_TABLE default
1.2 2.3
3.4 4.5
5.6 6.7
7.8 8.9
1.3 2.4
3.5 4.6
5.7 6.8
7.9 8
1.3 2.4
3.5 4.6
5.7 6.8
8 1.4
2.5 3.6
4.8 1.5
2.6 3.7
4.8 5.9
