# vtk DataFile Version 2.0
Simplicial Mesh Example
ASCII
DATASET UNSTRUCTURED_GRID
POINTS 8 double
-1 -1 1
-1 1 1
0 -1 1
0 1 1
1 -1 1
1 1 1
0 -1 1
0 1 1
CELLS 2 10
4  6 7 1 0
4  4 5 3 2
CELL_TYPES 2
9
9
CELL_DATA 2
VECTORS traction double
1.1 2.2 3.3
4.4 5.5 6.6
SCALARS pressure double 1
LOOKUP_TABLE default
2.1
3.2
SCALARS other double 6
LOOKUP_TABLE default
1.2 2.3 3.4 4.5 5.6 6.7
7.8 8.9 9 10.1 11.2 12.3
