# vtk DataFile Version 2.0
Simplicial Mesh Example
ASCII
DATASET UNSTRUCTURED_GRID
POINTS 16 double
-1 -1 -1
-1 1 -1
0 -1 -1
0 1 -1
1 -1 -1
1 1 -1
-1 -1 1
-1 1 1
0 -1 1
0 1 1
1 -1 1
1 1 1
0 -1 -1
0 1 -1
0 -1 1
0 1 1
CELLS 2 18
8  0 12 13 1 6 14 15 7
8  2 4 5 3 8 10 11 9
CELL_TYPES 2
12
12
CELL_DATA 2
VECTORS traction double
1.1 2.2 3.3
4.4 5.5 6.6
SCALARS pressure double 1
LOOKUP_TABLE default
2.1
3.2
SCALARS other double 6
LOOKUP_TABLE default
1.2 2.3 3.4 4.5 5.6 6.7
1.1 2.2 3.3 4.4 5.5 6.6
