# vtk DataFile Version 2.0
Simplicial Mesh Example
ASCII
DATASET UNSTRUCTURED_GRID
POINTS 4 double
0.000000e+00 -1.000000e+00 -1.000000e+00
0.000000e+00 1.000000e+00 -1.000000e+00
0.000000e+00 -1.000000e+00 1.000000e+00
0.000000e+00 1.000000e+00 1.000000e+00
CELLS 1 5
4  0 2 3 1
CELL_TYPES 1
9
POINT_DATA 4
SCALARS pressure double 1
LOOKUP_TABLE default
2.100000e+00
3.200000e+00
4.300000e+00
5.400000e+00
VECTORS displacement double
1.100000e+00 2.200000e+00 3.300000e+00
4.400000e+00 5.500000e+00 6.600000e+00
7.700000e+00 8.800000e+00 9.900000e+00
1.010000e+01 1.120000e+01 1.230000e+01
SCALARS stress double 6
LOOKUP_TABLE default
1.100000e+00 1.200000e+00 1.300000e+00 1.400000e+00 1.500000e+00 1.600000e+00
2.100000e+00 2.200000e+00 2.300000e+00 2.400000e+00 2.500000e+00 2.600000e+00
3.100000e+00 3.200000e+00 3.300000e+00 3.400000e+00 3.500000e+00 3.600000e+00
4.100000e+00 4.200000e+00 4.300000e+00 4.400000e+00 4.500000e+00 4.600000e+00
SCALARS other double 2
LOOKUP_TABLE default
1.200000e+00 2.300000e+00
3.400000e+00 4.500000e+00
5.600000e+00 6.700000e+00
7.800000e+00 8.900000e+00
