# vtk DataFile Version 2.0
Simplicial Mesh Example
ASCII
DATASET UNSTRUCTURED_GRID
POINTS 6 double
-1 -1 1
-1 1 1
0 -1 1
0 1 1
1 -1 1
1 1 1
CELLS 2 10
4  2 3 1 0
4  4 5 3 2
CELL_TYPES 2
9
9
POINT_DATA 6
VECTORS displacements double
7.8 8.9 9
10.2 11.3 12.4
1.3 2.4 3.5
4.6 5.7 6.8
7.9 8.1 9.2
10.3 11.4 12.5
SCALARS pressure double 1
LOOKUP_TABLE default
8.7
9.8
10.9
11.8
12.7
13.6
SCALARS other double 2
LOOKUP_TABLE default
5.7 6.8
7.9 8
8.1 8.2
9.2 9.3
10.4 10.5
11.5 11.6
