# vtk DataFile Version 2.0
Simplicial Mesh Example
ASCII
DATASET UNSTRUCTURED_GRID
POINTS 16 double
-1.000000e+00 -1.000000e+00 -1.000000e+00
-1.000000e+00 1.000000e+00 -1.000000e+00
0.000000e+00 -1.000000e+00 -1.000000e+00
0.000000e+00 1.000000e+00 -1.000000e+00
1.000000e+00 -1.000000e+00 -1.000000e+00
1.000000e+00 1.000000e+00 -1.000000e+00
-1.000000e+00 -1.000000e+00 1.000000e+00
-1.000000e+00 1.000000e+00 1.000000e+00
0.000000e+00 -1.000000e+00 1.000000e+00
0.000000e+00 1.000000e+00 1.000000e+00
1.000000e+00 -1.000000e+00 1.000000e+00
1.000000e+00 1.000000e+00 1.000000e+00
0.000000e+00 -1.000000e+00 -1.000000e+00
0.000000e+00 1.000000e+00 -1.000000e+00
0.000000e+00 -1.000000e+00 1.000000e+00
0.000000e+00 1.000000e+00 1.000000e+00
CELLS 2 18
8  0 12 13 1 6 14 15 7
8  2 4 5 3 8 10 11 9
CELL_TYPES 2
12
12
POINT_DATA 16
VECTORS displacements double
1.100000e+00 2.200000e+00 3.300000e+00
4.400000e+00 5.500000e+00 6.600000e+00
7.700000e+00 8.800000e+00 9.900000e+00
1.010000e+01 1.120000e+01 1.230000e+01
1.200000e+00 2.300000e+00 3.400000e+00
4.500000e+00 5.600000e+00 6.700000e+00
7.800000e+00 8.900000e+00 9.000000e+00
1.020000e+01 1.130000e+01 1.240000e+01
1.300000e+00 2.400000e+00 3.500000e+00
4.600000e+00 5.700000e+00 6.800000e+00
7.900000e+00 8.000000e+00 9.100000e+00
1.020000e+01 1.130000e+01 1.240000e+01
1.350000e+01 1.460000e+01 1.570000e+01
1.680000e+01 1.790000e+01 1.810000e+01
1.920000e+01 2.030000e+01 2.140000e+01
2.250000e+01 2.360000e+01 2.470000e+01
SCALARS pressure double 1
LOOKUP_TABLE default
2.100000e+00
3.200000e+00
4.300000e+00
5.400000e+00
6.500000e+00
7.600000e+00
8.700000e+00
9.800000e+00
1.000000e+01
1.210000e+01
1.110000e+01
1.310000e+01
1.410000e+01
1.510000e+01
1.610000e+01
1.710000e+01
SCALARS other double 2
LOOKUP_TABLE default
1.200000e+00 2.300000e+00
3.400000e+00 4.500000e+00
5.600000e+00 6.700000e+00
7.800000e+00 8.900000e+00
1.300000e+00 2.400000e+00
3.500000e+00 4.600000e+00
5.700000e+00 6.800000e+00
7.900000e+00 8.000000e+00
1.300000e+00 2.400000e+00
3.500000e+00 4.600000e+00
5.700000e+00 6.800000e+00
8.000000e+00 1.400000e+00
2.500000e+00 3.600000e+00
4.800000e+00 1.500000e+00
2.600000e+00 3.700000e+00
4.800000e+00 5.900000e+00
