# vtk DataFile Version 2.0
Simplicial Mesh Example
ASCII
DATASET UNSTRUCTURED_GRID
POINTS 8 double
-1 -1 1
-1 1 1
0 -1 1
0 1 1
1 -1 1
1 1 1
0 -1 1
0 1 1
CELLS 2 10
4  6 7 1 0
4  4 5 3 2
CELL_TYPES 2
9
9
POINT_DATA 8
VECTORS displacements double
1.1 2.2 3.3
4.4 5.5 6.6
7.7 8.8 9.9
10.1 11.2 12.3
1.2 2.3 3.4
4.5 5.6 6.7
7.8 8.9 9
10.2 11.3 12.4
SCALARS pressure double 1
LOOKUP_TABLE default
2.1
3.2
4.3
5.4
6.5
7.6
8.7
9.8
SCALARS other double 2
LOOKUP_TABLE default
1.2 2.3
3.4 4.5
5.6 6.7
7.8 8.9
1.3 2.4
3.5 4.6
5.7 6.8
7.9 8
