# vtk DataFile Version 2.0
Simplicial Mesh Example
ASCII
DATASET UNSTRUCTURED_GRID
POINTS 4 double
-1 0.0 0.0
0 0.0 0.0
1 0.0 0.0
0 0.0 0.0
CELLS 2 6
2  0 3
2  1 2
CELL_TYPES 2
3
3
CELL_DATA 2
VECTORS traction double
1.1 0.0 0.0
2.2 0.0 0.0
SCALARS pressure double 1
LOOKUP_TABLE default
2.1
2.2
SCALARS other double 1
LOOKUP_TABLE default
1.2
2.3
