# vtk DataFile Version 2.0
Simplicial Mesh Example
ASCII
DATASET UNSTRUCTURED_GRID
POINTS 4 double
-1.000000e+00 0.0 0.0
0.000000e+00 0.0 0.0
1.000000e+00 0.0 0.0
0.000000e+00 0.0 0.0
CELLS 2 6
2  0 3
2  1 2
CELL_TYPES 2
3
3
CELL_DATA 2
SCALARS pressure double 1
LOOKUP_TABLE default
1.100000e+00
2.200000e+00
VECTORS traction double
2.100000e+00 0.0 0.0
2.200000e+00 0.0 0.0
SCALARS stress double 1
LOOKUP_TABLE default
1.200000e+00
2.300000e+00
SCALARS other double 2
LOOKUP_TABLE default
1.200000e+00 2.300000e+00
3.400000e+00 2.200000e+00
