# vtk DataFile Version 2.0
Simplicial Mesh Example
ASCII
DATASET UNSTRUCTURED_GRID
POINTS 4 double
-1 0.0 0.0
0 0.0 0.0
1 0.0 0.0
0 0.0 0.0
CELLS 1 3
2  0 3
CELL_TYPES 1
3
CELL_DATA 1
VECTORS traction double
1.1 0.0 0.0
SCALARS pressure double 1
LOOKUP_TABLE default
2.1
SCALARS other double 1
LOOKUP_TABLE default
1.2
