# vtk DataFile Version 2.0
Simplicial Mesh Example
ASCII
DATASET UNSTRUCTURED_GRID
POINTS 1 double
-1 0.0 0.0
CELLS 1 2
1  0
CELL_TYPES 1
-1
CELL_DATA 1
VECTORS traction double
1.1 2.2 0.0
SCALARS pressure double 1
LOOKUP_TABLE default
2.1
VECTORS other double
1.2 2.3 3.4
