# vtk DataFile Version 2.0
Simplicial Mesh Example
ASCII
DATASET UNSTRUCTURED_GRID
POINTS 4 double
-1.000000e+00 0.000000e+00 0.0
0.000000e+00 -1.000000e+00 0.0
0.000000e+00 1.000000e+00 0.0
1.000000e+00 0.000000e+00 0.0
CELLS 2 8
3  0 1 2
3  1 3 2
CELL_TYPES 2
5
5
POINT_DATA 4
VECTORS field data double
1.100000e+00 1.200000e+00 0.0
2.100000e+00 2.200000e+00 0.0
3.100000e+00 3.200000e+00 0.0
4.100000e+00 4.200000e+00 0.0
