# vtk DataFile Version 2.0
Simplicial Mesh Example
ASCII
DATASET UNSTRUCTURED_GRID
POINTS 4 double
-1 0 0.0
0 -1 0.0
0 1 0.0
1 0 0.0
CELLS 2 8
3  0 1 2
3  1 3 2
CELL_TYPES 2
5
5
POINT_DATA 4
SCALARS field data double 1
LOOKUP_TABLE default
1.62788
3.04138
4.45533
5.86941
