# vtk DataFile Version 2.0
Simplicial Mesh Example
ASCII
DATASET UNSTRUCTURED_GRID
POINTS 3 double
-1 -1 0.0
0 -1 0.0
1 -1 0.0
CELLS 2 6
2  0 1
2  1 2
CELL_TYPES 2
3
3
CELL_DATA 2
VECTORS traction double
1.1 2.2 0.0
3.3 4.4 0.0
SCALARS pressure double 1
LOOKUP_TABLE default
2.1
3.2
VECTORS other double
1.2 2.3 3.4
4.5 5.6 6.7
