# vtk DataFile Version 2.0
Simplicial Mesh Example
ASCII
DATASET UNSTRUCTURED_GRID
POINTS 8 double
-1 0 0
0 -1 0
0 0 1
0 1 0
1 0 0
0 -1 0
0 0 1
0 1 0
CELLS 2 10
4  1 2 3 0
4  5 7 6 4
CELL_TYPES 2
10
10
POINT_DATA 8
VECTORS displacements double
1.1 2.2 3.3
4.4 5.5 6.6
7.7 8.8 9.9
10 11.1 12.2
13.3 14.4 15.5
16.6 17.7 18.8
19.9 20 21.1
22.2 23.3 24.4
SCALARS pressure double 1
LOOKUP_TABLE default
2.1
3.2
4.3
5.4
6.5
7.6
8.7
9.8
SCALARS other double 2
LOOKUP_TABLE default
1.2 2.3
3.4 4.5
5.6 6.7
7.8 8.9
9 10.1
11.2 12.3
13.4 14.5
15.6 16.7
