# vtk DataFile Version 2.0
Simplicial Mesh Example
ASCII
DATASET UNSTRUCTURED_GRID
POINTS 4 double
-3.333333e-01 0.000000e+00 3.333333e-01
1.000000e-09 0.000000e+00 3.333333e-01
1.000000e-09 0.000000e+00 1.000000e-12
1.000000e-09 -1.000000e+00 1.000000e-09
CELLS 4 8
1  0
1  1
1  2
1  3
CELL_TYPES 4
1
1
1
1
POINT_DATA 4
VECTORS displacements double
9.300000e+00 1.073333e+01 0.0
8.900000e+00 1.000000e+01 0.0
1.100000e+00 2.200000e+00 0.0
3.300000e+00 4.400000e+00 0.0
SCALARS pressure double 1
LOOKUP_TABLE default
6.866667e+00
6.500000e+00
2.100000e+00
3.200000e+00
SCALARS other double 2
LOOKUP_TABLE default
9.733333e+00 1.083333e+01
9.000000e+00 1.010000e+01
1.200000e+00 2.300000e+00
3.400000e+00 4.500000e+00
