# vtk DataFile Version 2.0
Simplicial Mesh Example
ASCII
DATASET UNSTRUCTURED_GRID
POINTS 4 double
-3.333333e-01 0.000000e+00 3.333333e-01
1.000000e-09 0.000000e+00 3.333333e-01
1.000000e-09 0.000000e+00 1.000000e-12
1.000000e-09 -1.000000e+00 1.000000e-09
CELLS 4 8
1  0
1  1
1  2
1  3
CELL_TYPES 4
1
1
1
1
POINT_DATA 4
VECTORS displacements double
1.495000e+01 1.580000e+01 1.690000e+01
7.133333e+00 7.255556e+00 7.377778e+00
7.200000e+00 8.300000e+00 9.400000e+00
4.400000e+00 5.500000e+00 6.600000e+00
SCALARS pressure double 1
LOOKUP_TABLE default
7.056000e+00
4.300000e+00
4.300000e+00
3.200000e+00
SCALARS other double 2
LOOKUP_TABLE default
1.030000e+01 1.145000e+01
5.600000e+00 6.700000e+00
5.600000e+00 6.700000e+00
3.400000e+00 4.500000e+00
