# vtk DataFile Version 2.0
Simplicial Mesh Example
ASCII
DATASET UNSTRUCTURED_GRID
POINTS 3 double
0 -1 0
0 0 1
0 1 0
CELLS 1 4
3  1 0 2
CELL_TYPES 1
5
CELL_DATA 1
VECTORS traction double
1.1 2.2 3.3
SCALARS pressure double 1
LOOKUP_TABLE default
2.1
SCALARS other double 6
LOOKUP_TABLE default
1.2 2.3 3.4 4.5 5.6 6.7
