# vtk DataFile Version 2.0
Simplicial Mesh Example
ASCII
DATASET UNSTRUCTURED_GRID
POINTS 6 double
-1.000000e+00 0.000000e+00 0.000000e+00
0.000000e+00 -1.000000e+00 0.000000e+00
0.000000e+00 1.000000e+00 0.000000e+00
1.000000e+00 0.000000e+00 0.000000e+00
0.000000e+00 -1.000000e+00 0.000000e+00
0.000000e+00 1.000000e+00 0.000000e+00
CELLS 2 8
3  0 2 1
3  4 5 3
CELL_TYPES 2
5
5
POINT_DATA 6
VECTORS displacements double
1.100000e+00 2.200000e+00 3.300000e+00
4.400000e+00 5.500000e+00 6.600000e+00
7.700000e+00 8.800000e+00 9.900000e+00
1.000000e+01 1.110000e+01 1.220000e+01
1.330000e+01 1.440000e+01 1.550000e+01
1.660000e+01 1.770000e+01 1.880000e+01
SCALARS pressure double 1
LOOKUP_TABLE default
2.100000e+00
3.200000e+00
4.300000e+00
5.400000e+00
6.500000e+00
7.600000e+00
SCALARS other double 2
LOOKUP_TABLE default
1.200000e+00 2.300000e+00
3.400000e+00 4.500000e+00
5.600000e+00 6.700000e+00
7.800000e+00 8.900000e+00
9.000000e+00 1.010000e+01
1.120000e+01 1.230000e+01
