# vtk DataFile Version 2.0
Simplicial Mesh Example
ASCII
DATASET UNSTRUCTURED_GRID
POINTS 3 double
-3.333333e-01 0.000000e+00 0.0
1.000000e-07 0.000000e+00 0.0
9.999999e-01 0.000000e+00 0.0
CELLS 3 6
1  0
1  1
1  2
CELL_TYPES 3
1
1
1
POINT_DATA 3
VECTORS displacements double
7.366667e+00 8.1333333e+00 0.0
4.400000e+00 5.5000000e+00 0.0
7.700000e+00 8.8000000e+00 0.0
SCALARS pressure double 1
LOOKUP_TABLE default
5.400000e+00
3.750000e+00
5.400000e+00
SCALARS other double 2
LOOKUP_TABLE default
7.133333e+00 8.233333e+00
4.500000e+00 5.600000e+00
7.800000e+00 8.900000e+00
