# vtk DataFile Version 2.0
Simplicial Mesh Example
ASCII
DATASET UNSTRUCTURED_GRID
POINTS 2 double
0.000000e+00 -1.000000e+00 0.0
1.000000e+00 0.000000e+00 0.0
CELLS 1 3
2  0 1
CELL_TYPES 1
3
POINT_DATA 2
SCALARS pressure double 1
LOOKUP_TABLE default
3.200000e+00
5.400000e+00
VECTORS displacement double
3.300000e+00 4.400000e+00 0.0
7.700000e+00 8.800000e+00 0.0
VECTORS stress double
2.100000e+00 2.200000e+00 2.300000e+00
4.100000e+00 4.200000e+00 4.300000e+00
SCALARS other double 2
LOOKUP_TABLE default
3.400000e+00 4.500000e+00
7.800000e+00 8.900000e+00
