# vtk DataFile Version 2.0
Simplicial Mesh Example
ASCII
DATASET UNSTRUCTURED_GRID
POINTS 6 double
-1 0 0.0
0 -1 0.0
0 1 0.0
1 0 0.0
0 -1 0.0
0 1 0.0
CELLS 1 4
3  1 3 2
CELL_TYPES 1
5
POINT_DATA 6
VECTORS displacements double
1.1 2.2 0.0
3.3 4.4 0.0
5.5 6.6 0.0
7.7 8.8 0.0
9.9 10 0.0
11.1 12.2 0.0
SCALARS pressure double 1
LOOKUP_TABLE default
2.1
3.2
4.3
5.4
6.5
7.6
SCALARS other double 2
LOOKUP_TABLE default
1.2 2.3
3.4 4.5
5.6 6.7
7.8 8.9
9 10.1
11.2 12.3
