# vtk DataFile Version 2.0
Simplicial Mesh Example
ASCII
DATASET UNSTRUCTURED_GRID
POINTS 2 double
0 -1 0.0
1 0 0.0
CELLS 1 3
2  0 1
CELL_TYPES 1
3
CELL_DATA 1
VECTORS traction double
1.1 2.2 0.0
SCALARS pressure double 1
LOOKUP_TABLE default
2.1
VECTORS other double
1.2 2.3 3.4
