# vtk DataFile Version 2.0
domain
ASCII
DATASET UNSTRUCTURED_GRID
POINTS 8 double
1.000000e+00 -1.000000e+00 -1.000000e+00
1.000000e+00 1.000000e+00 -1.000000e+00
1.000000e+00 -1.000000e+00 1.000000e+00
1.000000e+00 1.000000e+00 1.000000e+00
0.000000e+00 -1.000000e+00 -1.000000e+00
0.000000e+00 1.000000e+00 -1.000000e+00
0.000000e+00 -1.000000e+00 1.000000e+00
0.000000e+00 1.000000e+00 1.000000e+00
CELLS 1 9
8  4 0 1 5 6 2 3 7
CELL_TYPES 1
12
CELL_DATA 1
SCALARS scalar double 1
LOOKUP_TABLE default
2.100000e+00
VECTORS vector double
1.100000e+00 2.200000e+00 3.300000e+00
SCALARS tensor double 6
LOOKUP_TABLE default
1.200000e+00 2.300000e+00 3.400000e+00 4.500000e+00 5.600000e+00 6.700000e+00
SCALARS other double 2
LOOKUP_TABLE default
1.200000e+00 2.300000e+00
