# vtk DataFile Version 2.0
domain
ASCII
DATASET UNSTRUCTURED_GRID
POINTS 6 double
-1.000000e+00 -1.000000e+00 1.000000e+00
-1.000000e+00 1.000000e+00 1.000000e+00
0.000000e+00 -1.000000e+00 1.000000e+00
0.000000e+00 1.000000e+00 1.000000e+00
1.000000e+00 -1.000000e+00 1.000000e+00
1.000000e+00 1.000000e+00 1.000000e+00
CELLS 2 10
4  0 2 3 1
4  2 4 5 3
CELL_TYPES 2
9
9
POINT_DATA 6
SCALARS scalar double 1
LOOKUP_TABLE default
8.700000e+00
9.800000e+00
1.090000e+01
1.180000e+01
1.270000e+01
1.360000e+01
VECTORS vector double
7.800000e+00 8.900000e+00 9.000000e+00
1.020000e+01 1.130000e+01 1.240000e+01
1.300000e+00 2.400000e+00 3.500000e+00
4.600000e+00 5.700000e+00 6.800000e+00
7.900000e+00 8.100000e+00 9.200000e+00
1.030000e+01 1.140000e+01 1.250000e+01
SCALARS tensor double 6
LOOKUP_TABLE default
7.100000e+00 7.200000e+00 7.300000e+00 7.400000e+00 7.500000e+00 7.600000e+00
8.100000e+00 8.200000e+00 8.300000e+00 8.400000e+00 8.500000e+00 8.600000e+00
9.100000e+00 9.200000e+00 9.300000e+00 9.400000e+00 9.500000e+00 9.600000e+00
1.010000e+01 1.020000e+01 1.030000e+01 1.040000e+01 1.050000e+01 1.060000e+01
1.110000e+01 1.120000e+01 1.130000e+01 1.140000e+01 1.150000e+01 1.160000e+01
1.210000e+01 1.220000e+01 1.230000e+01 1.240000e+01 1.250000e+01 1.260000e+01
SCALARS other double 2
LOOKUP_TABLE default
5.700000e+00 6.800000e+00
7.900000e+00 8.000000e+00
8.100000e+00 8.200000e+00
9.200000e+00 9.300000e+00
1.040000e+01 1.050000e+01
1.150000e+01 1.160000e+01
