# vtk DataFile Version 2.0
domain
ASCII
DATASET UNSTRUCTURED_GRID
POINTS 16 double
-1.000000e+00 -1.000000e+00 -1.000000e+00
-1.000000e+00 1.000000e+00 -1.000000e+00
0.000000e+00 -1.000000e+00 -1.000000e+00
0.000000e+00 1.000000e+00 -1.000000e+00
1.000000e+00 -1.000000e+00 -1.000000e+00
1.000000e+00 1.000000e+00 -1.000000e+00
-1.000000e+00 -1.000000e+00 1.000000e+00
-1.000000e+00 1.000000e+00 1.000000e+00
0.000000e+00 -1.000000e+00 1.000000e+00
0.000000e+00 1.000000e+00 1.000000e+00
1.000000e+00 -1.000000e+00 1.000000e+00
1.000000e+00 1.000000e+00 1.000000e+00
0.000000e+00 -1.000000e+00 -1.000000e+00
0.000000e+00 1.000000e+00 -1.000000e+00
0.000000e+00 -1.000000e+00 1.000000e+00
0.000000e+00 1.000000e+00 1.000000e+00
CELLS 2 18
8  0 2 3 1 6 8 9 7
8  12 4 5 13 14 10 11 15
CELL_TYPES 2
12
12
CELL_DATA 2
SCALARS scalar double 1
LOOKUP_TABLE default
2.100000e+00
3.200000e+00
VECTORS vector double
1.100000e+00 2.200000e+00 3.300000e+00
4.400000e+00 5.500000e+00 6.600000e+00
SCALARS tensor double 6
LOOKUP_TABLE default
1.200000e+00 2.300000e+00 3.400000e+00 4.500000e+00 5.600000e+00 6.700000e+00
1.100000e+00 2.200000e+00 3.300000e+00 4.400000e+00 5.500000e+00 6.600000e+00
SCALARS other double 2
LOOKUP_TABLE default
1.200000e+00 2.300000e+00
1.100000e+00 2.200000e+00
