# vtk DataFile Version 2.0
domain
ASCII
DATASET UNSTRUCTURED_GRID
POINTS 8 double
1.000000e+00 -1.000000e+00 -1.000000e+00
1.000000e+00 1.000000e+00 -1.000000e+00
1.000000e+00 -1.000000e+00 1.000000e+00
1.000000e+00 1.000000e+00 1.000000e+00
0.000000e+00 -1.000000e+00 -1.000000e+00
0.000000e+00 1.000000e+00 -1.000000e+00
0.000000e+00 -1.000000e+00 1.000000e+00
0.000000e+00 1.000000e+00 1.000000e+00
CELLS 1 9
8  4 0 1 5 6 2 3 7
CELL_TYPES 1
12
POINT_DATA 8
SCALARS scalar double 1
LOOKUP_TABLE default
6.500000e+00
7.600000e+00
1.110000e+01
1.310000e+01
1.410000e+01
1.510000e+01
1.610000e+01
1.710000e+01
VECTORS vector double
1.200000e+00 2.300000e+00 3.400000e+00
4.500000e+00 5.600000e+00 6.700000e+00
7.900000e+00 8.000000e+00 9.100000e+00
1.020000e+01 1.130000e+01 1.240000e+01
1.350000e+01 1.460000e+01 1.570000e+01
1.680000e+01 1.790000e+01 1.810000e+01
1.920000e+01 2.030000e+01 2.140000e+01
2.250000e+01 2.360000e+01 2.470000e+01
SCALARS tensor double 6
LOOKUP_TABLE default
5.100000e+00 5.200000e+00 5.300000e+00 5.400000e+00 5.500000e+00 5.600000e+00
6.100000e+00 6.200000e+00 6.300000e+00 6.400000e+00 6.500000e+00 6.600000e+00
1.110000e+01 1.120000e+01 1.130000e+01 1.140000e+01 1.150000e+01 1.160000e+01
1.210000e+01 1.220000e+01 1.230000e+01 1.240000e+01 1.250000e+01 1.260000e+01
1.310000e+01 1.320000e+01 1.330000e+01 1.340000e+01 1.350000e+01 1.360000e+01
1.410000e+01 1.420000e+01 1.430000e+01 1.440000e+01 1.450000e+01 1.460000e+01
1.510000e+01 1.520000e+01 1.530000e+01 1.540000e+01 1.550000e+01 1.560000e+01
1.610000e+01 1.620000e+01 1.630000e+01 1.640000e+01 1.650000e+01 1.660000e+01
SCALARS other double 2
LOOKUP_TABLE default
1.300000e+00 2.400000e+00
3.500000e+00 4.600000e+00
5.700000e+00 6.800000e+00
8.000000e+00 1.400000e+00
2.500000e+00 3.600000e+00
4.800000e+00 1.500000e+00
2.600000e+00 3.700000e+00
4.800000e+00 5.900000e+00
