# vtk DataFile Version 2.0
points
ASCII
DATASET UNSTRUCTURED_GRID
POINTS 4 double
-5.000000e-01 0.000000e+00 5.000000e-01
-1.000000e-08 0.000000e+00 0.000000e+00
-1.000000e-08 0.000000e+00 1.000000e+00
1.000000e+00 1.000000e+00 -1.000000e+00
CELLS 4 8
1  0
1  1
1  2
1  3
CELL_TYPES 4
1
1
1
1
POINT_DATA 4
SCALARS scalar double 1
LOOKUP_TABLE default
8.550000e+00
7.950000e+00
1.105000e+01
7.600000e+00
VECTORS vector double
5.937500e+00 7.037500e+00 7.950000e+00
5.925000e+00 7.025000e+00 8.125000e+00
2.950000e+00 4.050000e+00 5.150000e+00
4.500000e+00 5.600000e+00 6.700000e+00
SCALARS tensor double 6
LOOKUP_TABLE default
7.100000e+00 7.200000e+00 7.300000e+00 7.400000e+00 7.500000e+00 7.600000e+00
6.600000e+00 6.700000e+00 6.800000e+00 6.900000e+00 7.000000e+00 7.100000e+00
9.600000e+00 9.700000e+00 9.800000e+00 9.900000e+00 1.000000e+01 1.010000e+01
6.100000e+00 6.200000e+00 6.300000e+00 6.400000e+00 6.500000e+00 6.600000e+00
SCALARS other double 2
LOOKUP_TABLE default
4.575000e+00 5.487500e+00
4.550000e+00 5.650000e+00
2.400000e+00 3.500000e+00
3.500000e+00 4.600000e+00
