# vtk DataFile Version 2.0
Simplicial Mesh Example
ASCII
DATASET UNSTRUCTURED_GRID
POINTS 4 double
-1.000000e+00 0.000000e+00 0.0
0.000000e+00 -1.000000e+00 0.0
0.000000e+00 1.000000e+00 0.0
1.000000e+00 0.000000e+00 0.0
CELLS 2 8
3  0 1 2
3  1 3 2
CELL_TYPES 2
5
5
POINT_DATA 4
SCALARS field data double 1
LOOKUP_TABLE default
1.627882e+00
3.041381e+00
4.455334e+00
5.869412e+00
