# vtk DataFile Version 2.0
Simplicial Mesh Example
ASCII
DATASET UNSTRUCTURED_GRID
POINTS 2 double
0.000000e+00 -1.000000e+00 0.0
0.000000e+00 1.000000e+00 0.0
CELLS 1 3
2  0 1
CELL_TYPES 1
3
POINT_DATA 2
SCALARS pressure double 1
LOOKUP_TABLE default
2.100000e+00
3.200000e+00
VECTORS displacement double
1.100000e+00 2.200000e+00 0.0
3.300000e+00 4.400000e+00 0.0
VECTORS stress double
1.200000e+00 1.300000e+00 1.400000e+00
2.200000e+00 2.300000e+00 2.400000e+00
SCALARS other double 2
LOOKUP_TABLE default
1.200000e+00 2.300000e+00
3.400000e+00 4.500000e+00
