# vtk DataFile Version 2.0
points
ASCII
DATASET UNSTRUCTURED_GRID
POINTS 3 double
-5.000000e-01 0.000000e+00 0.0
1.000000e-08 0.000000e+00 0.0
1.000000e+00 -1.000000e+00 0.0
CELLS 3 6
1  0
1  1
1  2
CELL_TYPES 3
1
1
1
POINT_DATA 3
SCALARS scalar double 1
LOOKUP_TABLE default
3.750000e+00
4.850000e+00
6.500000e+00
VECTORS vector double
4.400000e+00 5.500000e+00 0.0
6.600000e+00 7.700000e+00 0.0
9.900000e+00 1.010000e+01 0.0
VECTORS tensor double
2.600000e+00 2.700000e+00 2.800000e+00
3.600000e+00 3.700000e+00 3.800000e+00
5.100000e+00 5.200000e+00 5.300000e+00
SCALARS other double 2
LOOKUP_TABLE default
4.500000e+00 5.600000e+00
6.700000e+00 7.800000e+00
9.800000e+00 7.600000e+00
