# vtk DataFile Version 2.0
domain
ASCII
DATASET UNSTRUCTURED_GRID
POINTS 3 double
-1.000000e+00 -1.000000e+00 0.0
0.000000e+00 -1.000000e+00 0.0
1.000000e+00 -1.000000e+00 0.0
CELLS 2 6
2  0 1
2  1 2
CELL_TYPES 2
3
3
POINT_DATA 3
SCALARS scalar double 1
LOOKUP_TABLE default
2.100000e+00
4.300000e+00
6.500000e+00
VECTORS vector double
1.100000e+00 2.200000e+00 0.0
5.500000e+00 6.600000e+00 0.0
9.900000e+00 1.010000e+01 0.0
VECTORS tensor double
1.100000e+00 1.200000e+00 1.300000e+00
3.100000e+00 3.200000e+00 3.300000e+00
5.100000e+00 5.200000e+00 5.300000e+00
SCALARS other double 2
LOOKUP_TABLE default
1.200000e+00 2.300000e+00
5.600000e+00 6.700000e+00
9.100000e+00 1.020000e+01
