# vtk DataFile Version 2.0
domain
ASCII
DATASET UNSTRUCTURED_GRID
POINTS 4 double
0.000000e+00 -1.000000e+00 0.0
0.000000e+00 1.000000e+00 0.0
1.000000e+00 -1.000000e+00 0.0
1.000000e+00 1.000000e+00 0.0
CELLS 1 5
4  0 2 3 1
CELL_TYPES 1
9
CELL_DATA 1
SCALARS scalar double 1
LOOKUP_TABLE default
2.100000e+00
VECTORS vector double
1.100000e+00 2.200000e+00 0.0
VECTORS tensor double
1.200000e+00 2.300000e+00 3.400000e+00
SCALARS other double 2
LOOKUP_TABLE default
1.200000e+00 2.300000e+00
