# vtk DataFile Version 2.0
domain
ASCII
DATASET UNSTRUCTURED_GRID
POINTS 4 double
0.000000e+00 -1.000000e+00 0.0
0.000000e+00 1.000000e+00 0.0
1.000000e+00 -1.000000e+00 0.0
1.000000e+00 1.000000e+00 0.0
CELLS 1 5
4  0 2 3 1
CELL_TYPES 1
9
POINT_DATA 4
SCALARS scalar double 1
LOOKUP_TABLE default
4.300000e+00
5.400000e+00
6.500000e+00
7.600000e+00
VECTORS vector double
5.500000e+00 6.600000e+00 0.0
7.700000e+00 8.800000e+00 0.0
9.900000e+00 1.010000e+01 0.0
1.120000e+01 1.230000e+01 0.0
VECTORS tensor double
3.100000e+00 3.200000e+00 3.300000e+00
4.100000e+00 4.200000e+00 4.300000e+00
5.100000e+00 5.200000e+00 5.300000e+00
6.100000e+00 6.200000e+00 6.300000e+00
SCALARS other double 2
LOOKUP_TABLE default
5.600000e+00 6.700000e+00
7.800000e+00 8.900000e+00
9.800000e+00 7.600000e+00
6.500000e+00 5.400000e+00
