# vtk DataFile Version 2.0
points
ASCII
DATASET UNSTRUCTURED_GRID
POINTS 4 double
-3.333333e-01 0.000000e+00 3.333333e-01
1.000000e-08 0.000000e+00 3.333333e-01
1.000000e-08 0.000000e+00 1.000000e-08
0.000000e+00 -1.000000e+00 1.000000e-08
CELLS 4 8
1  0
1  1
1  2
1  3
CELL_TYPES 4
1
1
1
1
POINT_DATA 4
SCALARS scalar double 1
LOOKUP_TABLE default
3.566667e+00
8.700000e+00
8.700000e+00
3.200000e+00
VECTORS vector double
5.333333e+00 6.433333e+00 7.533333e+00
1.956667e+01 2.033333e+01 2.143333e+01
1.940000e+01 2.050000e+01 2.160000e+01
4.400000e+00 5.500000e+00 6.600000e+00
SCALARS tensor double 6
LOOKUP_TABLE default
2.433333e+00 2.533333e+00 2.633333e+00 2.733333e+00 2.833333e+00 2.933333e+00
7.100000e+00 7.200000e+00 7.300000e+00 7.400000e+00 7.500000e+00 7.600000e+00
7.100000e+00 7.200000e+00 7.300000e+00 7.400000e+00 7.500000e+00 7.600000e+00
2.100000e+00 2.200000e+00 2.300000e+00 2.400000e+00 2.500000e+00 2.600000e+00
SCALARS other double 2
LOOKUP_TABLE default
4.133333e+00 5.233333e+00
1.340000e+01 1.450000e+01
1.340000e+01 1.450000e+01
3.400000e+00 4.500000e+00
