# vtk DataFile Version 2.0
domain
ASCII
DATASET UNSTRUCTURED_GRID
POINTS 8 double
-1.000000e+00 0.000000e+00 0.000000e+00
0.000000e+00 -1.000000e+00 0.000000e+00
0.000000e+00 0.000000e+00 1.000000e+00
0.000000e+00 1.000000e+00 0.000000e+00
1.000000e+00 0.000000e+00 0.000000e+00
0.000000e+00 -1.000000e+00 0.000000e+00
0.000000e+00 0.000000e+00 1.000000e+00
0.000000e+00 1.000000e+00 0.000000e+00
CELLS 2 10
4  1 2 3 0
4  5 7 6 4
CELL_TYPES 2
10
10
POINT_DATA 8
SCALARS scalar double 1
LOOKUP_TABLE default
2.100000e+00
3.200000e+00
4.300000e+00
5.400000e+00
6.500000e+00
7.600000e+00
8.700000e+00
9.800000e+00
VECTORS vector double
1.100000e+00 2.200000e+00 3.300000e+00
4.400000e+00 5.500000e+00 6.600000e+00
7.700000e+00 8.800000e+00 9.900000e+00
1.000000e+01 1.110000e+01 1.220000e+01
1.330000e+01 1.440000e+01 1.550000e+01
1.660000e+01 1.770000e+01 1.880000e+01
1.990000e+01 2.000000e+01 2.110000e+01
2.220000e+01 2.330000e+01 2.440000e+01
SCALARS tensor double 6
LOOKUP_TABLE default
1.100000e+00 1.200000e+00 1.300000e+00 1.400000e+00 1.500000e+00 1.600000e+00
2.100000e+00 2.200000e+00 2.300000e+00 2.400000e+00 2.500000e+00 2.600000e+00
3.100000e+00 3.200000e+00 3.300000e+00 3.400000e+00 3.500000e+00 3.600000e+00
4.100000e+00 4.200000e+00 4.300000e+00 4.400000e+00 4.500000e+00 4.600000e+00
5.100000e+00 5.200000e+00 5.300000e+00 5.400000e+00 5.500000e+00 5.600000e+00
6.100000e+00 6.200000e+00 6.300000e+00 6.400000e+00 6.500000e+00 6.600000e+00
7.100000e+00 7.200000e+00 7.300000e+00 7.400000e+00 7.500000e+00 7.600000e+00
8.100000e+00 8.200000e+00 8.300000e+00 8.400000e+00 8.500000e+00 8.600000e+00
SCALARS other double 2
LOOKUP_TABLE default
1.200000e+00 2.300000e+00
3.400000e+00 4.500000e+00
5.600000e+00 6.700000e+00
7.800000e+00 8.900000e+00
9.000000e+00 1.010000e+01
1.120000e+01 1.230000e+01
1.340000e+01 1.450000e+01
1.560000e+01 1.670000e+01
