# vtk DataFile Version 2.0
points
ASCII
DATASET UNSTRUCTURED_GRID
POINTS 3 double
-3.333333e-01 0.000000e+00 0.0
1.000000e-07 0.000000e+00 0.0
9.999999e-01 0.000000e+00 0.0
CELLS 3 6
1  0
1  1
1  2
CELL_TYPES 3
1
1
1
POINT_DATA 3
SCALARS scalar double 1
LOOKUP_TABLE default
3.200000e+00
7.050000e+00
5.400000e+00
VECTORS vector double
3.300000e+00 4.400000e+00 0.0
1.050000e+01 1.110000e+01 0.0
7.700000e+00 8.800000e+00 0.0
VECTORS tensor double
2.100000e+00 2.200000e+00 2.300000e+00
5.600000e+00 5.700000e+00 5.800000e+00
4.100000e+00 4.200000e+00 4.300000e+00
SCALARS other double 2
LOOKUP_TABLE default
3.400000e+00 4.500000e+00
1.010000e+01 1.120000e+01
7.800000e+00 8.900000e+00
