# vtk DataFile Version 2.0
domain
ASCII
DATASET UNSTRUCTURED_GRID
POINTS 3 double
1.000000e+00 0.000000e+00 0.0
0.000000e+00 -1.000000e+00 0.0
0.000000e+00 1.000000e+00 0.0
CELLS 1 4
3  1 0 2
CELL_TYPES 1
5
POINT_DATA 3
SCALARS scalar double 1
LOOKUP_TABLE default
5.400000e+00
6.500000e+00
7.600000e+00
VECTORS vector double
7.700000e+00 8.800000e+00 0.0
9.900000e+00 1.000000e+01 0.0
1.110000e+01 1.220000e+01 0.0
VECTORS tensor double
4.100000e+00 4.200000e+00 4.300000e+00
5.100000e+00 5.200000e+00 5.300000e+00
6.100000e+00 6.200000e+00 6.300000e+00
SCALARS other double 2
LOOKUP_TABLE default
7.800000e+00 8.900000e+00
9.000000e+00 1.010000e+01
1.120000e+01 1.230000e+01
